/*--------------------------------*- C++ -*----------------------------------*\
  =========                 |
  \\      /  F ield         | OpenFOAM: The Open Source CFD Toolbox
   \\    /   O peration     | Website:  https://openfoam.org
    \\  /    A nd           | Version:  7
     \\/     M anipulation  |
\*---------------------------------------------------------------------------*/
FoamFile
{
    version     2.0;
    format      ascii;
    class       volScalarField;
    location    "19";
    object      alpha.water;
}
// * * * * * * * * * * * * * * * * * * * * * * * * * * * * * * * * * * * * * //

dimensions      [0 0 0 0 0 0 0];

internalField   nonuniform List<scalar> 
15284
(
0.999326
0.998987
0.997755
0.995614
0.991309
0.984158
0.970222
0.947731
0.905168
0.845142
0.742497
0.635303
0.478815
0.345306
0.199574
0.106847
0.306928
0.469863
0.63013
0.704773
0.644075
0.495381
0.410739
0.380362
0.318121
0.312058
0.321018
0.259291
0.271766
0.336717
0.378979
0.418293
0.495579
0.649469
0.707346
0.769761
0.999263
0.998745
0.997496
0.995394
0.991032
0.984141
0.970213
0.948151
0.905505
0.845485
0.742519
0.633662
0.476201
0.345475
0.202664
0.110401
0.107146
0.139411
0.193741
0.302953
0.465185
0.62953
0.760595
0.817011
0.77047
0.773597
0.860871
0.917234
0.952062
0.973308
0.985701
0.992574
0.996271
0.998162
0.999086
0.999556
0.999813
0.999923
0.999935
0.999869
0.999834
0.999726
0.999763
0.999728
0.999795
0.999869
0.999887
0.999934
0.999957
0.999972
0.999974
0.999986
0.99999
1
1.00001
1.00003
1.00003
1.00005
1.00006
1.00007
1.00007
1.00007
1.00007
1.00007
1.00009
1.0001
1.00011
1.00012
1.0001
1.00011
1.0002
1.00032
1.00055
1.00068
1.00097
1.00087
1.00097
1.001
1.00101
1.00102
1.00117
1.00142
1.00106
0.999723
0.999633
0.999305
0.998776
0.997573
0.995544
0.991254
0.984413
0.97048
0.948378
0.905634
0.845536
0.742526
0.633638
0.476269
0.34553
0.202886
0.110646
0.104142
0.199895
0.24968
0.209628
0.210662
0.315542
0.468835
0.633639
0.759766
0.849914
0.909728
0.947194
0.963016
0.946797
0.910011
0.858706
0.858904
0.909614
0.945318
0.969755
0.983838
0.991713
0.995755
0.997829
0.998912
0.999514
0.999782
0.999847
0.999794
0.999908
0.999928
0.999896
0.999726
0.99934
0.999499
0.999662
0.999785
0.99988
0.999915
0.999932
0.999942
0.999961
0.999975
0.999987
0.999995
1.00001
1.00002
1.00004
1.00005
1.00006
1.00006
1.00006
1.00006
1.00007
1.00008
1.00009
1.00009
1.00009
1.00008
1.00011
1.00022
1.00034
1.00066
1.00123
1.0008
1.00093
1.00091
1.00082
1.00076
1.0007
1.00069
1.00077
1.00068
1.00038
0.998752
0.99867
0.999724
0.999697
0.999737
0.999667
0.99936
0.998514
0.995826
0.986153
0.956569
0.875372
0.684455
0.419987
0.151742
0.0555107
0.114328
0.140359
0.123007
0.114922
0.193279
0.314184
0.462151
0.626764
0.698335
0.627354
0.467763
0.318478
0.313769
0.471442
0.634628
0.760019
0.847185
0.909706
0.94938
0.973119
0.985691
0.992686
0.996268
0.998136
0.999066
0.999515
0.99965
0.999614
0.999791
0.999883
0.999827
0.999788
0.999312
0.999119
0.999122
0.999243
0.999551
0.999598
0.999792
0.999894
0.999939
0.999947
0.99995
0.999958
0.999977
0.999994
1.00001
1.00003
1.00003
1.00004
1.00004
1.00003
1.00004
1.00004
1.00005
1.00004
1.00003
0.999997
1.00001
1.00009
1.00038
1.00067
1.0009
1.00064
1.00077
1.00068
1.00068
1.00063
1.00055
1.00047
1.00047
1.00044
1.00039
1.00031
1.00022
1.00009
1.00003
1
1
1.00003
0.999991
0.999913
0.999459
0.999242
0.998674
0.998674
0.99876
0.999486
0.999719
0.99976
0.999785
0.999804
0.999824
0.999912
0.999913
0.999918
0.999811
0.998497
0.99803
0.99874
0.999236
0.999399
0.998927
0.998512
0.997996
0.998435
0.997438
0.995443
0.991549
0.985106
0.973576
0.954607
0.919256
0.860706
0.762696
0.644832
0.475826
0.31765
0.178956
0.110659
0.0884972
0.0652793
0.0606714
0.0758872
0.120886
0.201913
0.31085
0.482987
0.653935
0.769749
0.850583
0.910735
0.951629
0.975592
0.987157
0.991652
0.991758
0.992787
0.995536
0.997441
0.998592
0.999252
0.99945
0.999726
0.999797
0.999797
0.999414
0.998806
0.998541
0.998866
0.999517
0.999751
0.999597
0.999559
0.999576
0.99981
0.999896
0.0931081
0.117799
0.188329
0.312592
0.379339
0.315523
0.190366
0.212808
0.307384
0.473005
0.631852
0.760601
0.846609
0.906414
0.931111
0.904674
0.848388
0.771576
0.764528
0.848127
0.906477
0.947097
0.970488
0.984164
0.991852
0.995979
0.998043
0.999051
0.999402
0.999588
0.999433
0.999524
0.999781
0.999896
0.999849
0.999728
0.999807
0.999722
0.999644
0.999661
0.999666
0.99974
0.99981
0.999878
0.999914
0.999883
0.999902
0.999939
0.99997
0.999987
1.00001
1.00002
1.00002
1.00001
1.00002
1.00003
1.00003
1.00003
1
0.999968
0.999961
0.999924
1.00003
1.00025
1.00058
1.00087
1.00066
1.0007
1.00064
1.00067
1.00017
1.00022
1.00022
1.00028
1.00051
1.0002
1.00011
1.00017
1.00019
1.00017
1.00021
1.00021
1.00014
1.00011
1.00008
1.00003
1.00002
0.999939
0.999935
0.999983
1.00002
1.00001
0.999988
0.999945
0.999853
0.999685
0.999793
0.999702
0.999733
0.999768
0.999764
0.999132
0.999538
0.998729
0.999313
0.999605
0.999422
0.99953
0.999671
0.999788
0.999845
0.99986
0.999917
0.999867
0.99992
0.99992
0.999856
0.999586
0.999766
0.999776
0.999686
0.999298
0.998498
0.99803
0.99803
0.998696
0.99954
0.999493
0.998825
0.99948
0.99899
0.99848
0.997612
0.998922
0.99916
0.997866
0.996667
0.995156
0.993602
0.991288
0.987285
0.977026
0.953928
0.912789
0.851345
0.76939
0.652977
0.481398
0.305397
0.18893
0.120676
0.0747937
0.0520965
0.0389861
0.0394049
0.0646997
0.0508137
0.0644176
0.0952609
0.179905
0.306183
0.468485
0.633427
0.765248
0.856728
0.914195
0.948655
0.969378
0.982119
0.990012
0.994731
0.997469
0.998899
0.999502
0.999713
0.999713
0.999452
0.999048
0.999049
0.999563
0.999751
0.999789
0.999762
0.999887
0.999887
0.999887
0.999848
0.999871
0.999932
0.999961
0.999951
0.998978
0.999081
0.996966
0.98845
0.960773
0.880091
0.667381
0.417231
0.059213
0.116531
0.14061
0.114402
0.116921
0.186533
0.303929
0.370312
0.308595
0.184916
0.124742
0.131965
0.193727
0.299092
0.474835
0.632771
0.756768
0.847529
0.882744
0.842239
0.755749
0.63453
0.484976
0.487394
0.637415
0.758306
0.844765
0.909397
0.949476
0.972091
0.985176
0.992355
0.996249
0.998205
0.999165
0.999624
0.999829
0.999907
0.999898
0.999659
0.998915
0.998908
0.999375
0.99884
0.999406
0.999729
0.999751
0.999841
0.999903
0.999929
0.999905
0.999873
0.999862
0.999898
0.999929
0.999955
0.999938
0.999917
0.999862
0.999934
0.999972
0.99998
0.99998
0.999963
0.9999
0.999879
0.999927
0.999929
0.999947
0.999961
1.00001
1.0001
1.00021
1.00032
1.00049
1.00093
1.0012
1.00085
1.00098
1.00124
1.00085
1.00063
1.00033
1.00071
1.00046
1.0003
1.00023
1.0001
0.999918
0.999921
0.999839
0.99991
0.999878
0.999813
0.999723
0.999635
0.999619
0.999678
0.999752
0.999604
0.999124
0.998112
0.996045
0.991915
0.984707
0.970765
0.948276
0.905563
0.844904
0.742634
0.635119
0.480221
0.344461
0.197986
0.115471
0.0627383
0.0508568
0.0353489
0.0462206
0.0708592
0.0835781
0.0685717
0.0682307
0.0660316
0.0259362
0.0407091
0.0615252
0.115168
0.180172
0.317533
0.376522
0.304159
0.186183
0.109302
0.0682168
0.0825167
0.128745
0.19164
0.286579
0.467615
0.543661
0.452132
0.297126
0.19098
0.128113
0.107106
0.199932
0.30772
0.44875
0.63268
0.699227
0.62063
0.460711
0.311202
0.215864
0.206745
0.296831
0.462983
0.631253
0.76248
0.848977
0.908927
0.933673
0.906355
0.846469
0.760983
0.637207
0.475917
0.480755
0.638859
0.760017
0.84735
0.908244
0.947935
0.971441
0.985087
0.992529
0.996404
0.998323
0.999235
0.999645
0.999783
0.999801
0.99974
0.99981
0.999861
0.999729
0.999707
0.999757
0.999172
0.998769
0.999044
0.999646
0.999821
0.999631
0.999223
0.9994
0.999646
0.999832
0.999894
0.999883
0.999769
0.999671
0.99981
0.999669
0.999775
0.999831
0.999877
0.999783
0.99964
0.999623
0.999464
0.999464
0.999662
0.999868
0.999843
0.999896
0.999929
0.99993
0.999925
0.999896
0.999849
0.999719
0.999771
0.999863
0.999857
0.999685
0.999435
0.999543
0.999638
0.999611
0.999084
0.999084
0.999498
0.999749
0.999749
0.999564
0.999608
0.0310013
0.0280312
0.0225593
0.114353
0.113436
0.111389
0.115187
0.192196
0.193087
0.115433
0.112081
0.192299
0.190626
0.198652
0.111188
0.193076
0.191883
0.19459
0.109001
0.110651
0.11645
0.12279
0.119844
0.115943
0.119724
0.155051
0.167024
0.388307
0.166827
0.194316
0.194603
0.192944
0.193461
0.116344
0.115936
0.198563
0.195907
0.119203
0.0764099
0.0510931
0.0664148
0.0708531
0.072865
0.0430728
0.0377325
0.0473142
0.0425849
0.0932475
0.0984024
0.205722
0.243843
0.188631
0.116351
0.0713251
0.0704068
0.121836
0.117543
0.122688
0.08054
0.192809
0.194187
0.193334
0.200279
0.113765
0.080084
0.0473428
0.0388275
0.0458292
0.0356653
0.0317881
0.0672365
0.0857012
0.0685865
0.0345268
0.0364352
0.03946
0.0405436
0.0416168
0.0351973
0.0771725
0.0684917
0.120965
0.177866
0.313586
0.381098
0.316883
0.18443
0.11036
0.1184
0.081573
0.0724766
0.0708841
0.0788649
0.131347
0.133297
0.206118
0.297985
0.459546
0.543092
0.464829
0.297389
0.188677
0.196031
0.120499
0.119025
0.197236
0.193688
0.316341
0.323468
0.318585
0.4802
0.632797
0.7567
0.847035
0.908389
0.94773
0.971612
0.985266
0.992688
0.996518
0.998403
0.999289
0.999691
0.999862
0.999862
0.999821
0.999431
0.99923
0.999381
0.999613
0.999613
0.999151
0.998808
0.999489
0.999617
0.999651
0.999595
0.999662
0.999378
0.999119
0.999122
0.999778
0.999667
0.999509
0.9994
0.999666
0.999669
0.999589
0.999785
0.999678
0.999777
0.999878
0.99988
0.999879
0.999853
0.999789
0.999814
0.999814
0.999732
0.999676
0.999736
0.999732
0.99971
0.999519
0.998591
0.998481
0.99931
0.999641
0.999588
0.999443
0.999399
0.999156
0.999086
0.998907
0.999414
0.999701
0.999629
0.999651
0.999531
0.999729
0.999843
0.999841
0.999793
0.99975
0.999581
0.99914
0.99822
0.996259
0.992323
0.984952
0.971176
0.947858
0.904583
0.842907
0.739663
0.631386
0.474134
0.34387
0.209933
0.119936
0.0361338
0.0471346
0.0584814
0.118301
0.144192
0.119363
0.0596429
0.0668335
0.0395023
0.0398129
0.0485556
0.0414262
0.0389684
0.0410938
0.0330617
0.0323254
0.076591
0.0886941
0.0677325
0.0712012
0.118491
0.134818
0.19254
0.324597
0.384646
0.318633
0.19796
0.206834
0.214423
0.323982
0.457667
0.618998
0.690228
0.622289
0.45459
0.313276
0.216083
0.132105
0.118399
0.116355
0.200867
0.200691
0.199335
0.116287
0.0741349
0.0698693
0.0502525
0.0402
0.0664245
0.0665535
0.120286
0.153387
0.126549
0.121377
0.153753
0.196217
0.196541
0.196877
0.331094
0.319033
0.311829
0.315374
0.471388
0.477338
0.482243
0.485858
0.4864
0.636483
0.759038
0.848145
0.908953
0.947891
0.97153
0.985062
0.99247
0.996341
0.998274
0.999178
0.999474
0.999444
0.999754
0.999754
0.999348
0.99876
0.999176
0.999534
0.999115
0.998829
0.99877
0.998664
0.998632
0.999569
0.999731
0.999573
0.999433
0.99948
0.999333
0.998833
0.998783
0.999077
0.999323
0.999837
0.999436
0.999101
0.999514
0.999668
0.999802
0.999682
0.999547
0.999487
0.99943
0.999467
0.999715
0.999684
0.999697
0.999488
0.99899
0.99958
0.999511
0.998907
0.99894
0.999336
0.999249
0.998718
0.998872
0.998872
0.999102
0.999226
0.999552
0.999671
0.999654
0.999297
0.998924
0.999221
0.999249
0.999933
0.99988
0.999776
0.999745
0.999507
0.99913
0.998393
0.998305
0.999286
0.99966
0.999488
0.999046
0.99782
0.998114
0.999289
0.998807
0.999019
0.998036
0.996528
0.994541
0.992434
0.990303
0.987061
0.977377
0.954377
0.913076
0.851396
0.76929
0.65303
0.48184
0.30594
0.188895
0.119055
0.0739227
0.0517673
0.0329968
0.0224283
0.0214401
0.0232423
0.0322215
0.0471833
0.0470973
0.0596537
0.0391232
0.0202468
0.0232995
0.0126593
0.00704326
0.0108299
0.0175304
0.0313326
0.0508013
0.0751561
0.0807291
0.0961759
0.174823
0.313862
0.485821
0.642018
0.766132
0.856082
0.913997
0.950154
0.971711
0.984102
0.991161
0.995301
0.996697
0.996636
0.99718
0.998352
0.999151
0.999578
0.999798
0.999799
0.999767
0.999549
0.999137
0.998316
0.996555
0.993583
0.993583
0.994035
0.992713
0.98651
0.974398
0.951553
0.911814
0.850408
0.762405
0.644659
0.481503
0.301333
0.170872
0.104197
0.123035
0.189115
0.296325
0.481381
0.657555
0.7674
0.848373
0.912773
0.955247
0.977815
0.986383
0.989098
0.99152
0.994293
0.996147
0.997539
0.99862
0.999284
0.999655
0.999796
0.999797
0.999359
0.998882
0.999318
0.999659
0.999816
0.999889
0.999913
0.999906
0.999925
0.999841
0.999835
0.999891
0.999863
0.999776
0.999585
0.999757
0.999643
0.999242
0.99923
0.998238
0.998013
0.99886
0.999688
0.999789
0.999636
0.999458
0.999591
0.999504
0.999383
0.998662
0.997524
0.995783
0.993918
0.993433
0.992419
0.986923
0.974953
0.951123
0.910642
0.850966
0.769995
0.653816
0.483588
0.312243
0.201461
0.118471
0.075678
0.0648187
0.0612899
0.0391183
0.0391108
0.0229053
0.0081623
0.0054633
0.0054634
0.00606984
0.00587715
0.0167744
0.0307669
0.0507357
0.0744715
0.0771877
0.100428
0.203757
0.329563
0.483122
0.63575
0.765575
0.856911
0.914713
0.949634
0.970671
0.982969
0.990188
0.994424
0.997007
0.99835
0.998731
0.999052
0.999473
0.999731
0.9998
0.99973
0.999289
0.998894
0.999246
0.999742
0.999779
0.99912
0.998652
0.999106
0.999562
0.999824
0.999919
0.999956
0.999942
0.999897
0.999825
0.999868
0.999754
0.999616
0.999728
0.999311
0.998465
0.998013
0.998515
0.999432
0.999487
0.998802
0.998485
0.999591
0.999511
0.999191
0.998459
0.997547
0.996517
0.994817
0.991059
0.983885
0.971345
0.949635
0.913648
0.856461
0.769734
0.647565
0.485479
0.314044
0.189116
0.115256
0.0808626
0.0880349
0.0791364
0.0589299
0.0196628
0.021374
0.00642011
0.00729744
0.00401424
0.0108383
0.0108376
0.00710548
0.00473994
0.00357927
0.00580384
0.0163752
0.0214582
0.0389613
0.0847497
0.12682
0.194987
0.311571
0.477518
0.634049
0.760212
0.853913
0.914585
0.949978
0.970147
0.981973
0.989335
0.993929
0.996751
0.998394
0.999386
0.998598
0.998662
0.999296
0.999696
0.999459
0.998733
0.998731
0.998804
0.999399
0.9998
0.999719
0.999533
0.999399
0.998882
0.998071
0.996451
0.993637
0.989069
0.981763
0.969964
0.949819
0.914373
0.853604
0.760458
0.634937
0.479056
0.318114
0.196375
0.122569
0.0820242
0.044815
0.0384443
0.0523524
0.108702
0.110356
0.12537
0.128589
0.20448
0.216966
0.21575
0.204053
0.336059
0.34117
0.329704
0.316794
0.473877
0.474102
0.475916
0.473838
0.615819
0.619335
0.622185
0.626961
0.75621
0.753106
0.750862
0.747679
0.846939
0.848793
0.849914
0.851563
0.912894
0.911903
0.911197
0.910158
0.947072
0.94771
0.948205
0.948756
0.969581
0.969381
0.969113
0.968723
0.981633
0.981786
0.98187
0.981859
0.989388
0.989435
0.989422
0.989401
0.993988
0.993976
0.996794
0.996739
0.998405
0.998451
0.999386
0.999344
0.999264
0.998576
0.998157
0.998157
0.999137
0.999486
0.999768
0.999764
0.999603
0.999717
0.999721
0.999208
0.999122
0.999117
0.9989
0.999007
0.99955
0.999612
0.999674
0.999585
0.999064
0.998236
0.996931
0.995052
0.992697
0.990192
0.986874
0.977756
0.954954
0.912497
0.848299
0.767352
0.657124
0.481359
0.296599
0.188058
0.120661
0.0611522
0.0612822
0.0337669
0.0272235
0.0155392
0.012339
0.0109426
0.0108536
0.0119453
0.0155115
0.027057
0.0342179
0.0502403
0.0734853
0.0791258
0.0938461
0.175377
0.316732
0.486569
0.642055
0.76614
0.855926
0.914085
0.950653
0.972192
0.984214
0.990898
0.994312
0.994843
0.995982
0.997605
0.998665
0.999255
0.999257
0.999561
0.999721
0.999497
0.999411
0.999374
0.998816
0.998644
0.997766
0.996186
0.993678
0.991472
0.990656
0.985955
0.974966
0.952205
0.912275
0.850678
0.762412
0.644086
0.482759
0.304788
0.170763
0.0993102
0.0950233
0.114929
0.0678674
0.0411296
0.0312348
0.0172099
0.0104924
0.00708955
0.0130701
0.0201687
0.0235302
0.0235254
0.0405068
0.0524751
0.0533943
0.0220622
0.00682646
0.00352958
0.0108469
0.00525273
0.00560225
0.00817226
0.0090524
0.00563626
0.00590748
0.0058975
0.00597554
0.0166982
0.0305699
0.050726
0.0760318
0.0793247
0.101882
0.2049
0.329056
0.482663
0.635713
0.765209
0.856435
0.914301
0.949491
0.970637
0.982931
0.990163
0.994419
0.996868
0.997819
0.998393
0.999038
0.999512
0.999594
0.999368
0.998856
0.997985
0.996456
0.993763
0.98926
0.98193
0.970032
0.949687
0.914098
0.853309
0.760276
0.635139
0.478475
0.31617
0.197493
0.118883
0.0862443
0.0453381
0.0203203
0.0390829
0.0868869
0.12455
0.194411
0.310189
0.476802
0.633866
0.76006
0.853795
0.914494
0.949894
0.970098
0.981986
0.989387
0.993929
0.996599
0.998018
0.998855
0.998837
0.998823
0.998719
0.997084
0.994201
0.98952
0.981916
0.969563
0.948747
0.912872
0.851521
0.755986
0.626643
0.473604
0.316379
0.203667
0.12815
0.109131
0.205055
0.326801
0.47626
0.628054
0.758364
0.853616
0.914029
0.949427
0.970471
0.983215
0.990896
0.995305
0.997709
0.998966
0.999579
0.999365
0.998975
0.998975
0.999511
0.999768
0.99979
0.99979
0.999885
0.999892
0.999845
0.999685
0.999601
0.999771
0.99991
0.999962
0.99997
1
1.00014
1.00045
1.00078
1.00139
1.00104
1.00033
1.00007
0.999915
0.999946
1.00029
1.00025
1.00068
1.00083
1.00133
1.00143
1.00168
1.00162
1.00095
1.00112
1.0031
1.00287
1.0015
1.00149
1.00067
1.00205
1.00444
1.00438
1.00317
1.00393
1.00133
1.00297
1.00351
1.00121
1.00144
1.0042
1.01011
1.01262
1.00593
1.00358
1.00285
1.0104
0.999652
1.00499
1.00814
1.00233
1.0024
1.00188
1.00125
1.00224
1.00464
1.01406
1.00385
1.00232
1.00469
1.00393
1.00063
1.00011
1.00019
1.00005
1.00009
1.00013
1.00004
1.00007
1.00006
1.00007
1.00007
1.00005
1.00002
0.999984
1
0.999883
1.00001
1.00003
0.999928
0.999744
0.999937
1
0.999826
0.999934
0.999957
0.999993
0.99998
0.999986
0.999965
0.999932
0.999939
0.99983
0.999696
0.999629
0.999144
0.999385
0.999597
0.999272
0.99926
0.999546
0.999353
0.99861
0.997238
0.994823
0.990591
0.983139
0.970275
0.947783
0.909773
0.84623
0.752067
0.624874
0.483539
0.33499
0.204532
0.10443
0.999199
0.998631
0.99703
0.994188
0.989509
0.981832
0.969248
0.948027
0.911722
0.849735
0.752846
0.621795
0.473803
0.329638
0.217852
0.126575
0.131252
0.211439
0.323199
0.473406
0.623909
0.754415
0.850941
0.912876
0.94943
0.971013
0.983842
0.991382
0.995625
0.997883
0.999008
0.99958
0.999022
0.999136
0.999546
0.999576
0.99957
0.999466
0.999536
0.999751
0.999846
0.999737
0.999446
0.999447
0.999751
0.999901
0.999966
1.00002
1.00019
1.0003
1.00047
1.00083
1.00145
1.00117
1.0013
1.00065
1.00043
1.00023
1.00006
0.99996
0.999973
0.999972
0.999944
0.999937
0.999905
0.999923
0.999908
0.999924
0.999904
0.999887
0.999856
0.999793
0.99962
0.999239
0.998803
0.998844
0.999543
0.999124
0.998123
0.996022
0.991932
0.984741
0.971094
0.948732
0.906203
0.845649
0.741974
0.632992
0.47501
0.345697
0.203471
0.114745
0.310741
0.629296
0.990478
0.982935
0.969885
0.946993
0.908228
0.843811
0.74847
0.620538
0.480883
0.336413
0.204335
0.104073
0.119732
0.199444
0.311584
0.470029
0.614867
0.740984
0.843787
0.912163
0.951553
0.97312
0.985117
0.991941
0.995764
0.997853
0.998966
0.999542
0.999795
0.999553
0.998633
0.998576
0.999136
0.999671
0.99981
0.999575
0.999329
0.999498
0.999788
0.999884
0.999817
0.999697
0.999749
0.999884
0.999986
1.00018
1.00053
1.00033
0.999924
1.00025
1.00509
1.00337
1.00742
1.00414
1.00943
1.00232
1.00949
1.00277
1.00182
1.0076
1.0003
1.00046
1.00011
1
0.99999
1.00005
0.999957
0.999988
1.00003
0.999947
0.999983
0.999994
1
1.00001
1.00001
0.999996
0.999898
0.999721
0.999886
0.999997
0.999994
0.999978
0.999975
0.999966
0.999915
0.999919
0.999812
0.999568
0.99916
0.998651
0.999086
0.999401
0.999407
0.998988
0.998899
0.998185
0.998829
0.997483
0.995058
0.990668
0.983928
0.972043
0.953963
0.918158
0.859198
0.756172
0.638939
0.464832
0.333341
0.196949
0.106658
0.0720496
0.0533043
0.0223193
0.022706
0.00529311
0.00332491
0.00314294
0.00402495
0.00524827
0.00488447
0.00604957
0.137873
0.230253
0.32794
0.469683
0.620685
0.752897
0.849521
0.911584
0.948791
0.970926
0.983933
0.991438
0.995612
0.997828
0.998945
0.999496
0.999691
0.999755
0.999755
0.999574
0.999305
0.999305
0.999497
0.99978
0.999742
0.999537
0.999405
0.999543
0.999763
0.999872
0.999935
0.999997
1.00017
1.00057
1.00105
1.0014
1.00107
0.999801
1.00013
0.998022
0.998854
1.00003
0.9999
0.999997
0.999928
1.00006
0.999099
0.998335
1.00062
1.00043
0.999774
0.998435
0.998674
1.00071
1.00045
1.00003
1.00005
0.999259
0.999453
1.00082
1.00091
1.00003
1.00093
1.00002
1.00115
1.00102
1.00046
1.00162
1.00056
1.00061
1.00026
1.00013
1.0006
1.00078
1.00119
1.00118
1.00114
1.00092
1.0006
1.00021
0.999999
0.999881
0.99972
0.999693
0.99981
0.999631
0.999706
0.999693
0.999776
0.999876
0.99998
1.00018
1.00066
1.00076
1.00016
0.999976
0.999941
0.999885
0.999843
0.99979
0.999896
0.999836
0.999666
0.999381
0.999361
0.999672
0.99981
0.999577
0.99891
0.998576
0.999213
0.999721
0.999795
0.999552
0.999
0.997916
0.995828
0.991942
0.984983
0.972852
0.951629
0.91396
0.848375
0.745674
0.612785
0.470958
0.325832
0.190324
0.104644
0.10698
0.220406
0.346649
0.469831
0.616227
0.750928
0.849116
0.911444
0.948929
0.971244
0.984256
0.991649
0.995707
0.997863
0.998971
0.999523
0.999786
0.999786
0.999605
0.999082
0.99891
0.99941
0.999711
0.999754
0.999584
0.999381
0.999408
0.999858
0.999863
0.999869
0.999867
0.999768
0.99965
0.999677
0.99977
0.999788
0.999761
0.999702
0.99952
0.999017
0.998001
0.995911
0.99194
0.98455
0.97136
0.948109
0.908476
0.843081
0.747287
0.61914
0.478668
0.3365
0.21238
0.111309
0.32554
0.395595
0.327977
0.187434
0.189161
0.14895
0.115616
0.194855
0.190706
0.192128
0.322823
0.319848
0.479504
0.479767
0.315488
0.315077
0.476109
0.456897
0.702361
0.468909
0.312109
0.323822
0.404226
0.337651
0.443733
0.460189
0.473801
0.330288
0.407163
0.333274
0.186825
0.113958
0.144875
0.161612
0.159799
0.154052
0.0792023
0.156952
0.0802473
0.08063
0.0819106
0.0543459
0.04506
0.0435858
0.0743367
0.0803402
0.134021
0.153118
0.115576
0.118625
0.133239
0.202965
0.201771
0.205427
0.329542
0.388466
0.320037
0.317477
0.477429
0.488448
0.626996
0.742641
0.835488
0.876274
0.834291
0.74061
0.619809
0.618143
0.482633
0.483812
0.627692
0.748241
0.839635
0.905011
0.932442
0.904297
0.840227
0.748501
0.620672
0.469758
0.313533
0.325027
0.204926
0.204454
0.111943
0.0757634
0.0655224
0.0654745
0.0401602
0.0372112
0.0758008
0.0706916
0.0333785
0.038105
0.0389275
0.0718753
0.0716289
0.12077
0.119902
0.201579
0.205638
0.207537
0.116088
0.128825
0.0673699
0.0371048
0.0404033
0.0380293
0.0505453
0.066521
0.0662772
0.132668
0.128035
0.120741
0.117919
0.196983
0.20017
0.205595
0.112089
0.123254
0.180394
0.388884
0.173777
0.156747
0.167313
0.157789
0.175095
0.124095
0.152823
0.112295
0.11125
0.122052
0.11319
0.117345
0.115079
0.212538
0.20819
0.206012
0.215327
0.257507
0.334751
0.462708
0.621823
0.684437
0.610421
0.46485
0.324295
0.318635
0.215984
0.21249
0.327453
0.334223
0.332247
0.329329
0.477367
0.477348
0.622073
0.621247
0.740811
0.746141
0.740736
0.837489
0.9059
0.911173
0.948876
0.972245
0.985503
0.992653
0.996279
0.99763
0.998793
0.999471
0.999768
0.999768
0.999438
0.998921
0.999195
0.999663
0.999801
0.999801
0.999798
0.999542
0.999648
0.999568
0.998757
0.998854
0.999235
0.999722
0.999567
0.999015
0.99929
0.998749
0.998644
0.999091
0.999508
0.999764
0.999761
0.998929
0.998664
0.999718
0.999379
0.998553
0.998732
0.999499
0.999563
0.999679
0.999684
0.998884
0.998023
0.997955
0.998977
0.99949
0.999732
0.999803
0.999831
0.99982
0.999832
0.999701
0.999575
0.999244
0.999473
0.999359
0.999244
0.99919
0.999229
0.999786
0.999567
0.999782
0.999655
0.999245
0.998884
0.998881
0.998889
0.999449
0.999726
0.999528
0.999705
0.999744
0.999386
0.99891
0.9995
0.998655
0.998152
0.997936
0.998773
0.9991
0.997989
0.998678
0.998727
0.999547
0.998161
0.998708
0.99946
0.999238
0.998666
0.99809
0.999018
0.999431
0.999354
0.998661
0.998663
0.99886
0.998722
0.999593
0.999712
0.999542
0.998805
0.998504
0.998504
0.998614
0.998882
0.999593
0.999616
0.99917
0.999795
0.999722
0.999723
0.999748
0.999061
0.999626
0.999232
0.999599
0.99954
0.999212
0.999424
0.999725
0.999761
0.999478
0.998803
0.998243
0.996288
0.992417
0.98507
0.971476
0.947529
0.954325
0.954337
0.974868
0.986651
0.992937
0.995418
0.997337
0.998619
0.999267
0.999569
0.999657
0.99976
0.999694
0.998926
0.998847
0.999506
0.999456
0.998771
0.998408
0.998407
0.998533
0.998578
0.998666
0.998681
0.999125
0.999461
0.999432
0.999159
0.998931
0.999116
0.999417
0.999347
0.999287
0.999388
0.999559
0.999691
0.999048
0.998655
0.999452
0.999677
0.999191
0.999169
0.999083
0.999002
0.998485
0.997784
0.998229
0.998368
0.999198
0.999463
0.999126
0.998789
0.997933
0.998088
0.998699
0.998876
0.998842
0.998574
0.99919
0.999571
0.999514
0.999635
0.999271
0.999271
0.999581
0.999176
0.99926
0.998991
0.999195
0.998991
0.999536
0.999613
0.999173
0.999575
0.999611
0.999182
0.999495
0.998876
0.998302
0.997931
0.99884
0.99951
0.999156
0.99958
0.999656
0.999513
0.999445
0.998989
0.999416
0.998607
0.999351
0.999281
0.998693
0.999453
0.99954
0.999651
0.999318
0.999576
0.999679
0.999689
0.999224
0.99945
0.999381
0.999629
0.999624
0.999361
0.999571
0.999203
0.999432
0.999643
0.999771
0.999771
0.999738
0.999784
0.999784
0.999708
0.999773
0.999767
0.999693
0.999544
0.999585
0.999728
0.999693
0.999722
0.999677
0.999681
0.999571
0.999381
0.999478
0.999714
0.999718
0.999677
0.999595
0.999682
0.999425
0.999006
0.998921
0.999222
0.999376
0.999394
0.99892
0.99892
0.99947
0.999764
0.999705
0.999826
0.999837
0.999739
0.999658
0.999769
0.999707
0.999623
0.999727
0.999732
0.999688
0.999603
0.999354
0.999542
0.999593
0.999434
0.998881
0.998718
0.99926
0.999265
0.999768
0.999853
0.999854
0.999798
0.999799
0.99984
0.999736
0.999841
0.999409
0.999553
0.999499
0.998982
0.997545
0.994574
0.995876
0.991384
0.983755
0.968959
0.947117
0.905537
0.848286
0.750465
0.619189
0.991232
0.98437
0.970057
0.947513
0.903922
0.8436
0.741224
0.632899
0.476269
0.34527
0.20787
0.112805
0.0803274
0.415457
0.403614
0.393733
0.331737
0.323003
0.481046
0.508035
0.505396
0.64813
0.776349
0.865127
0.918421
0.950489
0.970872
0.983521
0.991047
0.995317
0.99763
0.998835
0.999424
0.999709
0.999873
0.999912
0.999865
0.999861
0.999832
0.999906
0.999943
0.999949
0.999899
0.999806
0.999808
0.99986
0.999955
0.999987
0.999998
1.00003
1.00003
1.00006
1.00006
1.00009
1.00009
1.00011
1.00013
1.00013
1.00014
1.00015
1.00016
1.00017
1.00018
1.00019
1.0002
1.00019
1.00021
1.00022
1.00029
1.00041
1.00111
1.00129
1.00084
1.00042
1.00027
1.00025
1.00025
1.00028
1.00025
1.00025
1.00021
1.00021
1.00008
1.00007
1.00007
1.00006
1.00005
1.00004
1.00003
1.00002
1
0.999979
0.99993
0.999861
0.999884
0.999926
0.999966
0.999955
0.999938
0.999874
0.999688
0.999694
0.999649
0.999726
0.999924
0.999913
0.99974
0.999431
0.998932
0.997919
0.995949
0.992277
0.985612
0.973788
0.953063
0.917264
0.857402
0.767546
0.646183
0.526722
0.500925
0.641632
0.709381
0.644866
0.646899
0.653007
0.64623
0.663811
0.772223
0.85395
0.913001
0.951153
0.973743
0.986288
0.992996
0.996488
0.99827
0.999159
0.999586
0.999777
0.999876
0.99993
0.999936
0.999934
0.999918
0.999916
0.999896
0.999854
0.999721
0.999721
0.999846
0.999933
0.999982
0.999998
1.00001
1.00003
1.00003
1.00005
1.00005
1.00007
1.00008
1.0001
1.00011
1.00012
1.00013
1.00014
1.00014
1.00016
1.00017
1.00018
1.00019
1.0002
1.00021
1.00023
1.00031
1.00044
1.00127
1.00119
1.00056
1.00048
1.00109
1.00132
1.00086
1.00042
1.00049
1.00032
1.0002
1.00023
1.00016
1.00016
1.00014
1.00014
1.00011
1.00013
1.00011
1.0001
1.00009
1.00008
1.00008
1.00007
1.00006
1.00005
1.00004
1.00003
1.00002
1.00001
0.999999
0.999992
0.99999
0.999976
0.99996
0.999933
0.999895
0.999953
0.999953
0.999905
0.999821
0.999772
0.999519
0.99929
0.999618
0.999832
0.999937
0.999914
0.999789
0.999742
0.999533
0.999105
0.998172
0.996295
0.992676
0.985993
0.974138
0.953763
0.919341
0.861412
0.770836
0.639346
0.518964
0.511752
0.656824
0.775892
0.860602
0.915644
0.949941
0.971094
0.983752
0.991132
0.995299
0.997564
0.99874
0.999296
0.999566
0.999758
0.999888
0.999846
0.999739
0.999319
0.999422
0.999674
0.99982
0.999887
0.999905
0.999929
0.999959
0.999986
0.999996
1
1.00002
1.00002
1.00003
1.00003
1.00005
1.00006
1.00007
1.00009
1.00009
1.00009
1.0001
1.00011
1.00012
1.00014
1.00015
1.00016
1.00016
1.00018
1.0002
1.00036
1.00031
1.00024
1.00019
1.00019
1.00018
1.00018
1.00016
1.00014
1.00013
1.00012
1.00011
1.00011
1.0001
1.00009
1.00007
1.00006
1.00004
1.00003
1.00002
1.00002
1.00001
1
0.999984
0.999957
0.999898
0.9998
0.999721
0.99972
0.999744
0.999769
0.999734
0.999886
0.999932
0.999894
0.999808
0.999665
0.999737
0.999523
0.999079
0.998178
0.996396
0.992916
0.986195
0.973485
0.95033
0.910967
0.850462
0.771372
0.672314
0.510284
0.31937
0.344553
0.510466
0.498877
0.341929
0.34528
0.330854
0.393449
0.324655
0.322805
0.481614
0.497133
0.502971
0.503417
0.479515
0.479632
0.643365
0.649149
0.647076
0.64364
0.709632
0.6408
0.478511
0.639957
0.640196
0.634125
0.757985
0.762798
0.760437
0.633208
0.477081
0.318237
0.310664
0.325837
0.325877
0.317447
0.480796
0.47572
0.633417
0.63447
0.753665
0.758454
0.755055
0.62761
0.477638
0.311602
0.307328
0.317891
0.310906
0.466395
0.472042
0.46944
0.630812
0.626506
0.63015
0.646146
0.640157
0.769319
0.851756
0.909491
0.947977
0.97161
0.985181
0.992596
0.996447
0.998355
0.999259
0.999663
0.999786
0.99989
0.999765
0.999121
0.999047
0.999215
0.999713
0.999737
0.999543
0.999028
0.999166
0.999607
0.999755
0.999847
0.999847
0.999747
0.9996
0.999863
0.999879
0.999883
0.999883
0.999883
0.999859
0.999771
0.99983
0.99989
0.999876
0.999808
0.99951
0.999401
0.999519
0.999663
0.999486
0.999437
0.999753
0.999781
0.99931
0.99868
0.999477
0.999727
0.999809
0.999804
0.999651
0.999408
0.999596
0.999678
0.999807
0.999817
0.99982
0.999818
0.999787
0.99974
0.999757
0.999769
0.999817
0.999693
0.999899
0.999922
0.999879
0.999713
0.999698
0.999902
0.999688
0.999101
0.999107
0.996961
0.988951
0.962343
0.880305
0.688098
0.404556
0.130647
0.126876
0.129268
0.208481
0.205492
0.334852
0.330454
0.331625
0.212904
0.217196
0.217216
0.220953
0.216547
0.321923
0.343147
0.374914
0.403778
0.422532
0.486485
0.626114
0.682245
0.604131
0.472137
0.335092
0.329759
0.337578
0.351477
0.477662
0.472738
0.467491
0.610227
0.610432
0.609531
0.736795
0.738001
0.739143
0.745345
0.80075
0.845731
0.907245
0.94786
0.964105
0.947197
0.906293
0.838249
0.836955
0.840434
0.757552
0.746846
0.834545
0.90123
0.929887
0.901268
0.835622
0.742147
0.615285
0.472403
0.484075
0.613378
0.737913
0.836538
0.90653
0.910201
0.948431
0.948654
0.953832
0.974423
0.986466
0.99291
0.995343
0.997461
0.998799
0.999481
0.99948
0.999273
0.99949
0.999654
0.999198
0.998599
0.998569
0.999189
0.999719
0.999751
0.999828
0.999829
0.999729
0.999729
0.999815
0.999773
0.999787
0.999734
0.998718