/*--------------------------------*- C++ -*----------------------------------*\
  =========                 |
  \\      /  F ield         | OpenFOAM: The Open Source CFD Toolbox
   \\    /   O peration     | Website:  https://openfoam.org
    \\  /    A nd           | Version:  7
     \\/     M anipulation  |
\*---------------------------------------------------------------------------*/
FoamFile
{
    version     2.0;
    format      ascii;
    class       surfaceScalarField;
    location    "19";
    object      alphaPhi0.water;
}
// * * * * * * * * * * * * * * * * * * * * * * * * * * * * * * * * * * * * * //

dimensions      [0 3 -1 0 0 0 0];

internalField   nonuniform List<scalar> 
44249
(
-0.00270109
0.000778683
-0.000957397
-0.000103028
-0.000245903
-0.00342129
0.000679323
-0.000865012
8.25198e-06
0.00089898
-0.00294883
0.000634879
-0.000843781
2.77027e-05
-0.000288113
-0.00374392
0.000568275
-0.000794929
0.000150346
0.000878665
-0.00314509
0.000542601
-0.000756682
0.000165747
-0.000537663
-0.00389065
0.000490021
-0.000683558
0.000219001
0.000744354
-0.00312713
0.00045597
-0.000629129
0.000203317
-0.00075035
-0.00361494
0.000380522
-0.000524306
0.000303472
0.000404625
-0.00272983
0.000312519
-0.000439539
0.000427033
-0.00105542
-0.00297053
0.000231778
-0.000311339
0.000680383
-0.000167965
-0.00177494
0.00015978
-0.00025368
0.00107601
-0.00190227
-0.00133592
0.000113164
-0.000122406
0.000914059
-0.00103444
-0.000735338
0.000122943
-0.000145258
0.00058074
-0.000843901
-0.000555054
4.4067e-05
-2.12377e-05
0.00033165
-0.000283931
-0.000347331
2.04646e-05
5.16822e-06
5.81142e-05
-5.5178e-05
6.65045e-05
-9.46308e-05
7.90577e-05
-4.22707e-05
0.000734073
-2.67579e-07
-3.92371e-05
-0.000153811
0.00115478
0.000190806
-1.24914e-05
-0.000290768
0.00120943
0.000184132
0.000113243
-0.000112863
-0.000640813
0.000716218
0.000555971
0.000668294
-0.000612079
0.000197451
8.05849e-05
-0.000254514
-6.4413e-06
-3.6193e-05
4.04913e-05
-0.000655012
8.85033e-05
0.000356599
-0.00013754
-0.000603377
0.000442285
0.00046327
-0.000262449
-5.02307e-05
0.000187495
9.8812e-05
-0.000130147
-3.0547e-05
1.59858e-05
-2.44902e-05
0.000110425
6.40749e-05
2.36723e-05
0.000183611
0.00015403
5.83258e-05
-0.000547305
0.000364275
0.000251908
-6.43239e-05
-0.000378471
0.000359765
0.000231895
0.000172868
0.000175126
0.0003077
0.000618415
0.000117221
4.28676e-05
0.000522273
-0.000456801
0.000433717
0.000241679
0.000529064
-0.00121615
0.000658726
0.000639604
0.000111064
0.000303108
-0.00260311
-4.14577e-05
-0.000701074
-0.00327673
6.04673e-05
0.00050605
-0.00277011
6.05353e-05
-0.000635152
-0.00352838
0.000174787
0.000534242
-0.00293073
0.000172885
-0.000813006
-0.00366285
0.000219693
0.000472631
-0.00293771
0.000177718
-0.000952418
-0.00344629
0.000248694
0.000222164
-0.00259125
0.000322353
-0.00116207
-0.0028465
0.000577446
-0.00025501
-0.00171829
0.000982901
-0.00197705
-0.00132127
0.000865879
-0.00107712
-0.000683653
0.000509581
-0.000909895
-0.000494952
0.000234973
-0.000292642
-0.000315942
-1.78485e-05
-5.04329e-05
4.7382e-05
-6.91027e-05
0.000279258
-0.000187128
-5.89206e-05
0.000119144
0.00017108
0.000136033
0.000364655
-0.000190337
-8.79051e-05
0.000723095
-4.35606e-05
-0.000127958
0.00108553
4.8199e-05
-0.000130963
0.00153277
8.91748e-05
-0.000137669
0.0015341
0.000229841
0.000240225
-0.00029564
-0.000866584
0.00101377
0.000621717
0.000823918
0.000179258
-2.67421e-05
0.00107291
-0.000119847
-0.000139553
0.00133235
0.000132875
-0.000180934
-0.000134762
0.00159859
0.000146473
-0.000273055
-8.83913e-05
0.00189484
0.000173702
-0.000302692
-0.000133337
0.00207806
0.000293177
-0.000330714
-0.000124327
0.00215042
0.000287319
-0.000315084
-3.20259e-05
0.00203965
0.000300883
-0.000247073
6.38229e-05
0.00184335
0.000163417
-0.000118808
0.000155123
0.00161012
-5.26937e-05
1.43242e-06
0.000286134
0.000942635
5.57842e-05
0.000300006
0.000312424
0.00213123
0.00103006
-0.00111055
-0.00110776
0.00248787
-0.000540762
-0.000275244
0.000459598
0.00190895
-0.000450295
0.000622768
0.000406517
0.00141797
-0.000412026
0.000440712
0.000462176
0.000667551
0.000313434
0.000296839
0.000140175
0.00162265
0.000605607
-0.000636496
-0.000924372
0.00134465
-0.000709436
0.000674954
0.000312241
0.000891598
-0.000408551
0.000487685
0.000373945
0.00134255
-0.000633743
0.000911416
-0.000728405
0.00139264
-0.000696915
0.000205379
0.000441323
0.000863743
-0.000439641
0.00063655
0.000332153
0.00126333
-0.000615132
0.000910884
-0.000695296
0.00126824
-0.000636896
0.000201603
0.000430105
0.000772212
-0.000359001
0.00056718
0.000287844
0.0012398
-0.000538116
0.000641268
-0.000570854
0.000819426
-0.000556841
0.00068579
0.000291315
0.0013253
-0.000708113
0.000792761
-0.000590651
0.000966807
-0.00070988
0.000727061
0.000341239
0.00154533
-0.000776598
0.000856728
-0.00065883
0.00108845
-0.000779314
0.000801097
0.000435029
0.00166668
-0.000839823
0.000938222
-0.000676827
0.00117115
-0.000849777
0.000870826
0.000474385
0.00180493
-0.000925148
0.00100862
-0.00071747
0.00125672
-0.000928687
0.000928476
0.00054828
0.00186038
-0.000969778
0.00107469
-0.000708856
0.00117567
-0.000944744
0.00111121
0.000518025
0.00182798
-0.00113776
0.00116107
-0.000675925
0.000713981
0.00111242
0.000386829
-0.000385482
0.00118381
0.00129734
-0.000477595
-0.00129021
0.00189473
-0.00208136
0.00245548
-0.00108494
0.0018169
-0.0015279
0.000738814
0.000866566
0.00209272
-0.00191243
0.0026081
-0.000972107
0.000703175
0.0021373
0.000293066
-0.00104107
0.000531904
0.00242506
-0.000444615
-0.00181001
0.00115423
-0.00333834
0.00359826
-0.000882961
0.000857561
-0.00223227
0.00208656
0.000441946
0.000846678
-0.00196953
0.00243576
-0.000456076
0.000445965
0.000877307
-0.000627451
0.000150382
0.000149323
0.0010633
-0.000124373
-0.000643565
0.00116758
-1.02669e-05
-0.00100829
0.00203571
-0.000442316
-0.000179526
-0.000245856
0.00258581
-0.000116576
-0.000248441
-0.000185818
0.0030903
-0.000635123
-0.000213165
0.000343099
0.00303995
-0.000704945
-0.000954236
0.00170936
0.00250572
-0.00215378
-0.00147438
0.00416093
0.00127271
0.00061008
0.000625083
0.000826467
-0.00205078
-0.000404492
-0.00214975
-0.00473138
0.00304253
-0.00254369
-0.000780931
-0.000988921
-0.00011589
-0.0031414
0.000463237
-0.000869181
-5.54624e-05
-0.00256355
-0.00076344
-0.000781604
2.33849e-05
-0.00323499
0.00043405
-0.000680171
0.000118055
-0.0027453
-0.000679497
-0.000638689
0.000102072
-0.00350915
0.00048483
-0.000571734
0.000205396
-0.00292619
-0.000840468
0.000624444
-0.000547942
0.000193534
-0.00366684
0.000447706
0.000575801
-0.000495311
0.000235359
-0.00294738
-0.000967865
0.000566716
-0.000463486
0.000186306
-0.00345955
0.000211775
0.000510933
-0.000391798
0.000253629
-0.00260071
-0.00116861
0.000440322
-0.000327209
0.000320334
-0.0028537
-0.000252106
0.000366919
-0.000248281
0.000570366
-0.00172181
-0.00196983
0.000304528
-0.000174071
0.00097234
-0.00132361
-0.00106862
0.000237902
-0.000123679
0.000857282
-0.00068604
-0.000904266
0.000192085
-0.000124808
0.00050506
-0.000498811
-4.20211e-05
-0.000287868
0.00014772
0.000232503
-0.000321545
-4.8429e-05
-1.79165e-05
0.000115565
-1.86942e-05
0.00012143
-6.69783e-05
-6.58844e-05
4.89266e-05
0.000158085
-0.000141461
-5.50782e-05
0.000220016
0.000171237
-0.000108203
-4.30982e-05
-0.000119513
8.41668e-05
0.000146828
0.000161825
0.000139526
9.14576e-05
0.000254862
-5.67701e-05
0.000553305
-3.75671e-05
-0.000141045
0.000974975
8.72053e-06
-0.00013609
0.00132948
0.000125679
-0.000142308
0.00180554
0.00029195
-0.000340048
0.00207836
8.96075e-05
0.000309401
-0.00055144
0.00241454
-0.000111096
0.000359246
-0.000507094
0.00212196
-0.000218852
0.000818509
-0.000261525
-0.0015288
0.00129127
0.000914403
0.00146051
-0.00174976
0.00016599
-0.00013366
-0.00146471
-5.72873e-05
-0.000289293
-2.67884e-05
-0.000278102
0.000916496
-0.00015318
0.00117508
-0.000133144
0.00174439
-0.00019584
0.00183896
-0.000161123
0.000382484
0.00200782
9.50022e-05
3.69184e-05
0.00155549
0.000154147
0.000606077
0.00137252
0.000191846
0.00015753
0.0010186
8.33088e-05
0.000219155
0.00234405
-0.00125438
-0.00124161
0.00117137
0.00268009
-0.00044155
-0.000309926
0.000416143
0.0021052
-0.000332151
0.000366579
0.00162984
-0.000384187
0.000409133
0.00109956
-0.000319166
0.00043742
0.0016379
-0.000651112
-0.000892464
0.00100529
0.00174338
-0.000718694
9.9162e-05
0.000513738
0.00117654
-0.000529606
0.000386723
0.000525433
0.000239094
3.36345e-06
0.00119497
-0.000499698
-0.000803379
0.000967674
-0.00066939
0.00020026
0.000664406
-0.000361681
0.000225367
0.00114812
-0.000551863
-0.000547039
0.000930005
-0.000630099
0.000211107
0.000441695
0.000179789
-5.04791e-05
0.00104458
-0.000437348
-0.00070389
0.000477872
0.000154776
-0.000144901
0.00111386
-0.000490926
-0.000853471
0.000811388
-0.000621673
0.000214262
0.00131974
-0.000684794
-0.000600372
0.000878585
-0.000652915
0.00031456
0.00139909
-0.000753415
-0.000607136
0.000929143
-0.000718509
0.00033847
0.00146646
-0.000830934
-0.000631807
0.000959387
-0.000800745
0.000378886
0.00153386
-0.00095976
-0.000584894
0.000618696
0.000294162
-0.000324015
0.00104412
-0.000451547
-0.00111232
0.00161981
-0.00174388
-0.000945135
0.00211358
0.00151046
-0.00123282
0.000618168
0.000723602
0.00180404
-0.00148475
-0.000890945
0.000711874
0.00027948
-0.0007155
0.000799837
-0.000480833
-0.00152037
0.00140616
-0.00275545
-0.000964759
0.00311366
0.00136553
-0.00206169
0.000574851
0.00152704
0.00113597
-0.00236992
-0.000739788
0.000290481
-0.000104059
-0.00128296
-0.000144082
-0.000247516
-0.00128842
0.0002273
-0.00242388
-0.000263639
0.00231479
0.00113541
-0.000881688
-2.6077e-05
0.00254534
-0.0015439
-0.00130988
0.00144107
0.00339913
-0.00100761
-0.00027006
0.000423836
0.00460749
-0.000891614
-0.000759593
0.0058191
-0.000320582
-0.00100896
0.00574476
0.000358744
-0.000920179
0.00390276
-0.00482208
0.00288397
0.0037807
0.00685547
-0.00015496
-0.00104577
-0.00175334
0.00969027
-0.00336768
-0.00314127
0.00367266
0.00745035
0.00422373
-0.00797686
0.00599293
-0.0115358
-0.00243087
0.00169216
0.000701817
-0.00153631
-0.00063926
-0.000585843
-0.00151097
-0.0019484
0.000779651
-0.00182271
-0.000391298
-0.000469603
-0.00172468
0.00132184
-0.00192061
-0.00810079
0.00578876
-9.73619e-05
-0.00756112
-0.00176323
-0.00868061
-0.00634582
-0.000546345
0.00462118
0.002854
-0.00630357
-0.00551236
0.00402436
-0.00103553
0.000149509
-0.00717588
-0.00456299
-0.000790953
0.00325399
0.00298743
-0.00604504
-0.00367849
0.00301187
-0.000833656
0.000413476
-0.00761666
-0.00256569
-0.000295749
0.00234512
0.00224833
-0.00590599
-0.00174985
0.00199615
0.000711068
-0.00223656
-0.00630068
-0.000779922
0.00165577
0.00138748
-0.000782156
-0.00262511
-0.000287628
0.000854247
0.00509015
-0.00711634
-0.00192598
0.000120999
0.00142245
0.000679275
-0.00110787
-0.00115001
-1.47032e-05
0.000293073
0.000427186
-0.000140897
0.000825508
-2.70446e-05
9.20704e-05
-0.00132504
0.000191552
0.000139902
-0.00012064
-1.48497e-05
-6.68831e-05
6.61748e-05
7.75804e-05
0.000152453
0.000146439
4.27916e-05
0.000107018
-0.000105017
0.000237255
-2.88117e-05
-0.000123185
0.000591712
0.000130373
-4.30983e-05
-0.000242755
0.00110299
7.83749e-05
-1.30087e-05
-0.000304827
0.00115178
-9.29117e-05
0.000314162
-2.64702e-05
-0.000823838
0.000881416
0.000455713
0.000737444
-0.000733524
2.76977e-05
-5.38194e-05
-0.000347754
3.25556e-05
-0.000153054
4.77441e-05
-7.31866e-05
0.000354981
-0.000104106
0.000704941
-0.000125699
0.00103036
2.00366e-05
0.00131576
0.000291385
-0.000150016
0.00169895
0.000293769
-0.00026967
0.00206249
0.000342788
-0.000275039
0.00257386
0.000497056
-0.000138851
0.00249454
0.000399235
-0.000186176
-0.000105234
0.00265948
0.00030384
8.24031e-05
-0.000535789
0.00228102
0.000106786
0.000258081
2.18086e-05
0.00209361
0.000137469
-0.000146584
0.000200281
0.0018859
1.98124e-05
-6.2728e-05
0.000252496
0.00166718
-0.000226707
0.000173204
0.000273056
0.00107759
0.000218806
0.000237478
0.000133707
0.000671747
0.000319443
-8.0041e-05
0.000166683
0.0014964
-0.00103846
-0.000798903
0.00101319
0.00167134
-0.000692835
0.000161193
0.000356936
0.0011062
-0.000451101
0.000728899
0.000287339
0.000499361
0.000412492
0.000198903
-4.4993e-06
0.00111368
0.000653177
-0.000482935
-0.000784791
0.000872246
-0.000648133
0.000700418
0.0001882
0.000352327
0.000473272
0.000152679
-0.000106111
0.000774148
-0.000452612
-0.000705505
0.000736103
0.000873415
-0.000621535
0.000320756
0.000201551
0.000346767
0.00052053
0.000104832
-9.84989e-05
0.000790465
0.000651922
-0.000420215
-0.000675457
0.000636127
-0.000562182
0.000616467
0.000100135
0.00106965
-0.000642368
0.00076537
-0.000556603
0.000694397
-0.000625079
0.000782124
0.000218174
0.00103017
-0.000741434
-0.000629171
0.00103484
0.000956158
-0.00064972
0.000337975
0.000385497
0.00116059
-0.000796142
0.00136938
-0.000777547
0.00102299
-0.000711172
0.000413074
0.000435415
0.00121018
-0.000865289
-0.000809203
0.00148734
0.00104889
-0.000769494
0.000456269
0.000474214
0.00120891
-0.000905372
-0.000786905
0.00153222
0.00111076
-0.000800141
0.00041456
0.0004835
0.00136383
-0.00100281
0.00146378
-0.000714403
0.000537296
0.00101891
0.000201201
-0.000393708
0.000734816
0.00120901
-0.000403061
-0.00100401
0.00121422
-0.00165074
-0.000867465
0.00203904
0.00118213
-0.00121994
0.000469288
0.000782349
0.00130265
-0.00142575
0.00210129
-0.00079659
0.000461105
0.00155614
7.62048e-05
-0.000790981
0.00014127
0.00189532
-0.00036772
-0.00120828
0.000761141
-0.00249349
-0.000766081
0.00263881
0.000566447
0.00147583
1.69031e-05
-0.00129837
-0.000718644
0.00292004
-0.000298567
-0.00133699
-0.000804406
-0.00265096
-0.000161014
0.00289665
-0.000334202
-0.00295501
-4.32382e-05
0.00252664
-0.000348112
0.00175402
-0.00171464
-2.47189e-05
0.001637
-0.0017768
-0.000418053
0.000210285
0.00348704
0.0011808
-0.00127588
0.00368284
-0.00195873
0.000551929
0.00121091
0.00370522
0.000708176
-2.30184e-05
-0.000707385
0.00317799
-0.00104153
0.00144986
0.00011927
0.00381949
-0.000988857
0.000612815
-0.000265215
0.00597956
-0.00191327
-0.000533072
0.0002862
0.00911696
0.000497336
-0.00220886
-0.00142625
0.0123446
0.000125908
-0.00350855
0.00795432
-0.00902845
0.00690105
0.00651852
0.0221158
-0.00644464
-0.00497059
-0.00274392
-0.0200179
-0.00608155
-0.012677
-0.0246259
-0.00579782
-0.00824021
-0.0126717
-0.00315782
-0.0063163
-0.0081509
-0.00169719
-0.00566172
-0.00553721
-0.00113713
-0.00437216
-0.00407091
-0.000857119
-0.00374766
-0.0038698
-0.000486681
-0.00295477
-0.00339569
-0.000825409
-0.000861034
-0.00172154
-0.000628863
0.00136524
-0.00157742
-0.00102717
0.000377409
-0.00113654
0.000352216
0.000680173
-0.00125037
-0.000362152
-0.00020353
0.00141016
-0.00142522
-0.00155618
0.00203093
-0.00152745
-0.000785741
-0.0012119
-0.000478629
0.000850569
-0.00143593
-0.000548504
-7.73589e-05
0.00153159
0.00140258
-0.000732886
-0.00135055
-0.00104466
0.000461105
0.0018021
-0.00106179
-0.000382809
0.000634615
-0.00109522
-0.000473448
0.0027369
0.00351311
-0.00169656
8.76176e-07
-0.00118264
0.00267837
-0.000415431
0.000736736
0.0005144
0.00145699
-0.00125612
-0.00205209
-0.00308961
-0.00167449
0.00263274
-0.000686567
0.00126549
-0.00232324
-0.00148944
-0.000531851
0.00112
0.000135071
-0.00282167
-0.00129988
-0.000453504
0.000972114
0.00128063
-0.00215876
-0.00118167
-0.000379203
0.000866039
3.17432e-05
-0.00246106
-0.00104459
-0.000347518
0.000649795
0.00104493
-0.000959468
-0.000507404
-0.00105102
-0.00773091
-0.000974664
-0.000596144
8.22032e-05
-0.000126989
0.00203863
-0.000376262
0.00242083
0.00213768
0.0007193
-9.48493e-05
-4.85108e-06
0.00122208
0.00134652
-0.0019909
0.000173376
-0.000592228
-0.000426744
0.00187827
-0.000503609
0.00238161
0.00203545
0.00175024
0.000160955
-0.000162338
-0.000860188
-0.00715791
-0.000661067
0.000344689
0.00195988
0.000265405
-0.00133595
-0.000197617
-0.00268848
0.00234239
-0.000464286
4.23008e-05
0.000266377
-0.00250936
-0.000127035
-0.000244386
0.000219782
-2.5912e-05
-0.0028082
-0.000249753
-5.15541e-05
8.284e-05
0.000522244
-0.00257487
9.55706e-05
-0.000270527
1.81923e-05
-6.87488e-05
-0.00279395
-9.71185e-05
-1.51365e-05
-0.000102686
0.000449057
-0.00248977
0.00026793
-0.000482086
-0.000160875
9.66527e-05
-0.00268072
6.44606e-05
0.000196589
-0.000233335
0.000210418
-0.00233094
0.000286124
-0.000624692
-0.000179761
0.000257841
-0.00236054
-1.23487e-05
0.00010056
-0.000150705
0.000248629
-0.00170177
0.000201191
-0.000719834
-0.000122899
0.000218936
-0.00139577
8.22627e-05
6.66869e-05
-7.92449e-05
-5.14581e-05
-0.000830294
0.000209374
-0.000399734
-0.000121275
0.000135096
-0.000396484
-0.000136018
0.00012015
-6.85782e-06
-0.000121492
-0.00011507
-0.0002602
0.000144917
-7.20418e-05
4.62139e-05
-7.12164e-05
-2.10374e-05
-2.28487e-05
3.57564e-05
-1.64178e-05
6.77361e-05
-0.000107029
-3.30865e-05
-4.03564e-05
2.37365e-05
3.55193e-05
0.000230641
-4.98099e-05
-3.10913e-05
0.000121041
7.66409e-06
-4.95276e-05
1.17365e-06
0.000165744
9.94046e-05
0.000161083
0.000396959
-1.59431e-05
-1.7646e-05
-3.73126e-05
0.000415815
0.000134187
-3.09672e-05
1.11134e-05
0.000494648
0.000161267
-6.58286e-05
-4.40382e-05
0.000681737
8.07806e-06
3.75388e-05
-4.65214e-05
0.000747809
-9.12718e-05
0.000120369
4.61668e-05
0.000789079
-4.78114e-05
3.86228e-05
3.78712e-05
0.000917366
5.83527e-05
-6.36943e-05
-7.77631e-05
0.00113661
5.45253e-05
-8.95316e-05
-0.000146665
0.00127166
-6.4868e-05
1.88774e-05
-6.27522e-05
0.00120548
-0.000221663
0.000164012
0.000139013
0.000982884
-0.000247065
0.000232733
0.000243034
0.000762317
-0.000159711
0.000172702
0.000207901
0.000699927
-3.10797e-05
2.88774e-05
6.30117e-05
0.000769057
5.77997e-05
-9.3548e-05
-3.18228e-05
0.000883884
0.000110077
-0.000157739
-6.54667e-05
0.000988662
0.000106331
-0.000163733
-4.62319e-05
0.00105442
6.25109e-05
-0.000131016
3.4291e-06
0.000884373
0.00015091
-6.66084e-05
8.64605e-05
0.000993128
0.00170847
-0.000771822
-0.00104522
0.0013806
0.000207896
-0.000485702
-0.000109582
0.00135669
0.000182964
-0.000247736
8.85994e-05
0.00128214
0.000162001
-0.000222559
0.000135191
0.00117943
0.000168815
-0.00022843
0.000161971
0.00106079
0.000181056
-0.000245918
0.000183446
0.000799638
0.0002286
-0.00017128
0.00020502
0.0011687
0.00164293
-0.000929219
-0.00108229
0.00165366
-0.00107462
0.000450491
0.000139176
0.0016247
0.000190096
0.000395914
-0.000556497
0.00157948
0.000308167
-0.000609171
0.000346413
0.00121422
0.000413425
-0.000439615
0.000391751
0.00184602
-0.00193001
-0.00172226
0.00266067
-0.00317537
-3.89821e-05
-0.00327567
0.000473835
2.97184e-05
0.000117651
0.000117279
0.000326407
-7.91224e-05
-1.24309e-05
0.000448742
8.37855e-05
-0.000118754
4.6633e-05
0.000586031
5.60849e-05
0.000132987
-0.000122825
-0.000341079
0.000439851
0.000289048
0.000310023
-0.000233517
9.65327e-05
-2.40191e-05
7.24024e-06
-8.75949e-06
8.93046e-05
-4.18643e-06
0.000443178
-0.00016193
0.000842672
8.8072e-05
-0.000277458
0.00132304
0.000166676
-0.00010116
0.00156317
-0.000141501
0.000188697
-0.000126038
0.00184242
-0.000373147
0.000304368
-0.00011034
0.00159115
-0.000401505
0.000738189
-2.5142e-05
-0.00131806
0.00101539
0.000691897
0.00122521
-0.00138258
-5.81391e-05
-0.000236395
-0.00119111
-0.000189607
-0.000306243
-0.000111133
-0.000254257
0.000753946
-5.2723e-05
0.000984498
-6.73895e-05
0.00142502
-0.000105221
0.00164628
0.000484042
-0.000173098
0.00182117
0.000350581
-0.000105088
0.00190702
0.000222974
7.48746e-06
0.00191097
-2.60474e-05
0.000135937
0.00145346
0.000171767
0.00042669
0.00128422
4.36096e-05
0.000146879
0.000908993
-2.80926e-05
0.000177338
0.00192496
-0.0012367
-0.00111832
0.00133941
0.00204241
-0.000610087
0.000191038
0.000301181
0.00176213
-0.000279348
0.00010512
0.000454965
0.00121557
-0.000408814
0.000262459
0.000561568
0.000214996
-1.19024e-05
0.00114522
-0.000633312
-0.000873147
0.00092292
0.00123215
-0.000666869
0.000243101
0.000336439
0.000449147
0.000197579
-6.26807e-05
0.000914987
-0.00053255
-0.000791333
0.000858128
0.00100213
-0.000665486
0.000230517
0.000347211
0.0003621
0.000128328
-0.000110085
0.000790686
-0.000499743
-0.000728362
0.000799409
0.00092649
-0.000665092
0.00035283
0.000176183
0.000373412
0.00010465
-0.000113782
0.000850208
-0.00042319
-0.000696187
0.000401289
7.3342e-05
-0.000249465
0.000920397
-0.000454214
-0.000806632
0.00045115
9.67271e-05
-0.000277094
0.0010094
-0.000483304
-0.000871416
0.000483914
0.000115026
-0.000300702
0.00105153
-0.000501146
-0.000932202
0.000496422
0.000116873
-0.00033131
0.00104166
-0.000496359
-0.000954699
0.000447193
0.000126746
-0.000332483
0.000665811
-0.000379112
-0.000842881
0.00117707
-0.00142657
-0.000787232
0.00170277
0.000824642
0.000498677
0.000337105
-0.000483554
0.00111285
-0.000683537
-0.00125621
0.000422118
5.9929e-05
-0.00058928
0.000390071
-0.000386628
-0.00100779
0.000904507
-0.00187562
-0.000773724
0.00213475
0.000631676
0.0010333
0.000123296
-0.000884172
-0.000218454
-0.000453702
-0.00119029
0.000409995
-0.00248809
-0.000690903
0.00254957
0.000378182
0.00157803
-0.000202576
-0.00134395
-0.000764663
-0.000374997
-0.00113322
-0.000630572
-0.00261995
-0.000468909
-0.00221075
-0.000133004
-0.00139259
-0.000609068
-0.000209642
-0.000652099
0.000235379
-0.000346518
-0.000628786
0.000807868
-0.00146473
-0.000305494
0.000310073
-0.000191875
-0.000540724
0.00302133
-0.00161801
-0.000367396
-0.00122791
0.00261023
-0.000418641
0.000412455
0.00135736
0.00102231
0.000616977
-0.000386059
-0.000997787
-0.00166266
-5.99194e-05
0.00407782
-0.000753001
-0.000715668
-0.00261863
0.00153624
-0.000694939
0.00259929
-0.000624634
-0.00357161
0.00157627
0.00245494
-0.00310326
-0.000432255
0.00364178
0.00135301
0.00433305
0.000776029
-0.000148437
-0.00131953
0.00350959
0.00205654
-2.06424e-05
-0.00121291
0.00133445
0.00277664
0.00231782
-0.00291915
0.00270555
-0.00163504
0.000462651
-0.000198648
0.00584321
-0.0030431
-0.000456905
0.000362136
0.00800117
-0.00382362
0.00312392
-0.00145846
0.0140811
-0.00967623
0.00587775
-0.00228107
-0.00789736
0.0131072
-0.00379836
-0.0059404
-0.008409
-0.00169634
-0.00561126
-0.00483507
-0.00115538
0.00448078
-0.00421375
-0.00539146
-0.000487008
-0.00483581
-0.000858046
-0.00456292
-0.00320227
-0.00114118
-0.00403585
-0.0040258
-0.000370756
-0.00397523
-0.00310706
9.18991e-05
-0.00194671
-0.000636529
0.00114763
-0.0025393
0.000966948
-0.00165872
-0.00154733
0.000293043
0.00320871
-0.00178539
-0.00109246
-0.00296567
-0.000281063
-0.000773346
-0.00179803
-0.000585611
-0.000994782
-0.00165895
0.000303011
0.00165763
-0.00179855
-0.000576014
-0.000277992
-0.000286569
-0.000334212
0.00142464
-0.00132219
-0.000668649
0.000278902
-0.000723601
0.000360992
0.00195832
-0.00199706
-0.000524227
-0.000159606
-0.000635393
-0.000368858
0.00125462
-0.000186725
-0.00158975
-0.000112749
0.000789769
-0.000134395
5.15642e-05
0.00131549
-0.000202334
-0.00105571
0.00109726
-0.0003641
-0.000478883
0.000533587
-0.0003066
-0.00022442
9.42984e-05
-0.000407916
-0.000848462
0.00220964
-0.000544416
-0.000380845
-0.00118967
0.00433933
-0.000522306
-0.00160505
0.00380985
-0.000505848
0.000619295
0.00208444
-0.000561934
0.000578194
0.00170905
-0.000893239
-0.00159703
-0.000988937
-0.00420612
0.000591206
-0.00264241
-0.00161736
-0.0036693
-0.00149755
-0.0021913
0.000602436
0.00255016
-0.00295634
-0.000381476
-0.000814375
-0.00187512
0.00235715
-0.00323029
0.000561732
-0.00170215
-0.000626603
0.0020425
-0.00242655
-0.00160019
-0.000400212
-0.000717919
0.00191549
-0.00282615
-0.00141071
-0.000272917
0.000411851
-0.00215175
-0.00125387
-0.000161484
-0.000748416
-0.00263446
-0.00108335
-0.000132082
0.000398271
-0.00206857
-0.000997232
-0.00010034
-0.000651925
-0.00256739
-0.000846942
-0.000135321
0.000436207
-0.00171361
-0.000411017
-0.000779381
-0.000170611
0.000422311
-0.000630655
-0.00055518
0.000138804
-0.000751654
-0.00173736
-0.00967464
-0.00169296
-0.000886644
0.00984084
0.00106709
0.00426969
-9.63678e-05
0.00210344
-0.00115626
-0.000221415
0.00198708
-0.000703302
-0.00239196
0.00222495
-0.0004321
4.23014e-06
0.000372628
6.4907e-05
-0.00027361
0.000319336
8.06573e-05
2.97803e-06
-0.00297621
7.48753e-05
0.00288317
-0.00145963
0.00166944
-2.13696e-05
-0.00124548
-2.1165e-05
-8.12336e-05
-0.00108324
-2.95578e-05
-7.39061e-05
-0.00105634
-3.10691e-05
-2.73339e-05
-0.00128448
-1.77416e-05
8.73028e-05
-0.00171064
-3.04432e-06
0.000188834
-0.00201613
-9.60153e-07
0.000107366
-0.00193534
1.09091e-06
-0.000103746
-0.00158237
7.50901e-06
-0.000242408
-0.00130759
1.58357e-05
-0.000153134
-0.00118958
2.30498e-05
-7.04261e-05
-0.00104476
1.95886e-05
-2.59201e-05
-0.000667405
7.41505e-06
-8.23469e-05
-0.000321189
-9.84754e-08
2.80997e-05
-0.00021838
5.02928e-06
0.000123648
-0.000141838
7.98243e-06
-2.66638e-05
-9.143e-05
8.32508e-06
-7.96726e-05
2.84094e-05
6.05297e-06
-6.56551e-05
-3.15349e-05
-3.65347e-05
5.93497e-05
-5.66693e-05
-3.20647e-05
1.78414e-05
-3.58663e-05
-4.42628e-05
2.59202e-05
-2.79697e-05
-1.23472e-05
-6.28793e-05
-1.26364e-05
3.95066e-05
1.06589e-06
-5.26671e-05
-3.65428e-05
8.16997e-06
-2.47163e-05
2.60721e-05
-3.55486e-05
-8.3356e-05
-1.51024e-05
0.000153977
0.000173291
-0.000117385
-0.000112887
0.000345519
0.000237048
-0.000111258
-0.000196181
0.000656029
-7.59451e-05
0.000120871
-0.000178802
0.000973857
-0.000404861
0.000342656
-7.70789e-05
0.00120315
-0.000407203
0.000379255
-7.44886e-05
0.00125304
-0.000113973
0.000238359
-0.000100749
0.0012611
1.4502e-05
0.000152063
-0.000134495
0.00130402
-5.14431e-05
0.000139398
-0.000108273
0.00139693
-0.000195478
0.00015746
-4.11368e-05
0.00152168
-0.000223546
0.000119575
-1.19773e-05
0.00161896
-7.35136e-05
6.86746e-06
-2.50703e-05
0.00167298
0.000151055
-0.000134222
-6.73704e-05
0.00166229
0.000358121
-0.000262745
-8.25121e-05
0.00161391
0.000493374
-0.000355008
-8.88581e-05
0.00153644
0.000548148
-0.000404848
-6.53673e-05
0.00145019
0.000543581
-0.000428382
-2.87913e-05
0.00134369
0.000552441
-0.000447792
2.09858e-06
0.00119925
0.000619854
-0.000474335
-1.50516e-06
0.00111553
0.000590762
-0.000511082
4.17585e-06
0.00107419
0.00059026
-0.000562756
1.39148e-05
0.00103944
0.000634759
-0.000623303
2.37889e-05
0.000971305
0.000685124
-0.000665552
4.87243e-05
0.00093289
0.000614492
-0.000690717
0.000114574
0.000364061
-0.000499038
-6.12295e-06
0.000992719
-0.00134505
-0.000902454
0.00161867
0.00173396
-0.0023838
0.00165671
-1.39696e-05
0.0018165
-0.00228925
0.00188409
0.000322576
0.00190068
-0.00253711
0.00201267
0.000440021
0.00152576
-0.00288364
8.32157e-05
0.00132965
-0.003079
-6.24841e-07
0.000494484
-0.00239828
-6.38216e-05
-0.00302396
-0.00113885
-0.00654291
0.00396863
0.00460081
-0.00460944
-0.0106669
-0.00485215
-0.00631408
0.003222
-0.00441425
-0.00268769
-0.00612207
0.00479131
0.000791404
-0.00461731
-0.00137312
-0.00431944
-0.00112548
-0.00429594
0.00467713
-0.00103079
-0.00564762
-0.000171452
-0.00336027
-0.000283117
0.00526144
-0.00310956
-0.00299311
-0.00129795
0.00130684
0.000767301
-0.00380598
-0.00104786
0.000228039
0.00141095
0.0008715
-0.00159923
-0.0035927
0.00430169
0.00414212
-0.00508885
0.00181828
-0.000429078
-0.000352457
0.00150322
6.14806e-05
-2.71354e-05
-4.00847e-05
0.000145427
4.10218e-05
4.52522e-06
-6.46628e-05
-0.000108142
0.000133145
8.68417e-05
7.48078e-05
5.32413e-05
-3.56056e-05
6.23146e-05
9.13576e-05
-7.37116e-05
0.000212562
0.000151097
-0.00014987
-8.85777e-05
0.000441172
3.08617e-05
1.9671e-05
-0.000125544
-0.00028686
0.000320462
0.000239685
0.000259611
-0.000142824
1.63055e-05
-2.97458e-05
-5.75424e-05
7.43148e-05
4.53055e-05
4.33401e-05
3.46542e-05
0.000121545
-1.22068e-05
0.000105022
-5.57884e-07
0.000481942
-7.36894e-05
0.000928125
-0.000114009
0.000132056
-0.000215673
0.00134443
-0.000276179
0.000191019
-9.49266e-05
0.00160563
-0.000343563
0.000252403
-7.89618e-06
0.00132186
-0.000357222
0.000584929
0.000142751
-0.00109384
0.000884271
0.00056869
0.000996938
-0.00114003
-6.47479e-05
-0.000181976
-0.000982658
-0.000167804
-0.000219448
-0.000743845
-0.000126217
-0.000223299
-5.03862e-05
-0.000216575
0.000572588
-0.000122038
0.000813033
-6.28929e-05
0.000944222
-1.55171e-05
0.00128581
-2.60273e-05
0.00172174
-8.76206e-05
0.00045104
0.00190774
0.000321701
-0.000293834
-0.000175463
0.00210519
0.000275084
-0.000184625
-0.000264919
0.00213471
0.00024738
-0.00026715
3.46065e-06
0.00218529
0.000169173
-0.000421807
0.000209464
0.00184852
-0.00011915
0.000361503
9.83166e-05
0.00137362
-8.20773e-05
0.00024098
0.000317674
0.0011992
1.10352e-05
-1.42625e-05
0.000178325
0.000801255
0.000289558
-6.49947e-05
0.000173714
0.00166031
-0.00113386
-0.000982551
0.00125741
0.00166414
-0.000590468
0.000287652
0.000299026
0.00139328
-0.000388724
0.000219389
0.000439906
0.00052153
0.000684806
0.000221233
-3.43792e-05
0.000987579
-0.000562291
-0.000844457
0.000941031
0.00104257
-0.000707452
0.000284632
0.000369028
0.000350142
0.000693045
0.000151795
-0.000151756
0.000740284
-0.000467624
-0.0007714
0.000849467
0.000901845
-0.000730276
0.000135396
0.000433604
0.000315894
0.000685984
6.28869e-05
-0.000162591
0.000721001
-0.00050582
-0.000734326
0.000835074
0.000873724
-0.000661829
0.00011408
0.000394881
0.000351278
0.000559486
8.08626e-05
-0.000117793
0.000739342
0.00065
-0.000413762
-0.000624515
0.000365607
0.000592842
3.74214e-05
-0.000256461
0.00079432
0.000728936
-0.000433143
-0.000724751
0.000387866
0.000652382
4.38359e-05
-0.000289621
0.000824857
0.000786623
-0.000451648
-0.000772203
0.000390499
0.000704472
4.62799e-05
-0.000316344
0.000794615
0.000822653
-0.00043982
-0.000787274
0.000339948
0.000737373
4.02654e-05
-0.000322952
0.0004841
0.000898493
-0.000340442
-0.000702541
0.00095875
-0.00123584
-0.000700356
0.00146185
0.000697095
0.000429043
0.000249413
-0.000416871
0.000885208
0.00144285
-0.000611757
-0.00101961
0.00032624
0.00103368
-1.29818e-05
-0.000461655
0.000317208
0.00114596
-0.000357699
-0.00077969
0.000744674
-0.00141299
-0.000706909
0.00169243
0.000548478
8.78436e-05
-0.000619709
0.000727789
4.42451e-05
0.00185428
-0.000441854
-0.000908775
0.000498067
-0.00168409
-0.000699961
0.00192972
0.000375133
0.00107306
-0.000125601
-0.000824919
-0.000686803
0.00215376
-0.0003074
-0.000784655
-0.000934547
-0.00127553
-0.000207586
0.00172999
-0.000247652
-0.00176281
-0.000248989
0.00132403
-0.000134218
0.00117584
-0.000419773