/*--------------------------------*- C++ -*----------------------------------*\
  =========                 |
  \\      /  F ield         | OpenFOAM: The Open Source CFD Toolbox
   \\    /   O peration     | Website:  https://openfoam.org
    \\  /    A nd           | Version:  7
     \\/     M anipulation  |
\*---------------------------------------------------------------------------*/
FoamFile
{
    version     2.0;
    format      ascii;
    class       volScalarField;
    location    "19";
    object      p;
}
// * * * * * * * * * * * * * * * * * * * * * * * * * * * * * * * * * * * * * //

dimensions      [1 -1 -2 0 0 0 0];

internalField   nonuniform List<scalar> 
15284
(
13674.1
12475.1
11365.1
10165.1
9047.38
7859.27
6774.36
5614.34
4561.88
3490.38
2609.56
1773.23
1129.59
634.422
316.841
130.428
675.019
1155.99
1798.16
2311.93
1857.99
1269.77
978.151
919.626
738.192
638.918
654.655
566.569
564.712
740.207
932.376
985.259
1290.85
1886.69
2354.05
2848.55
13670.9
12475.5
11362
10162.2
9042.84
7858.5
6771.85
5615.28
4560.33
3492.11
2606.19
1770.85
1132.05
636.788
316.41
125.417
145.177
236.438
350.111
670.179
1141.19
1835.49
2671.46
3300.05
2796.56
2941.51
3834.07
4898.51
6032.4
7215.52
8427.32
9642.25
10842.5
12022.3
13087
13915.4
14725.9
15896.5
17099.7
18092
18969.1
19799.1
20861.2
21651.5
22389.8
23372.9
24162.2
24859.8
25730.5
26503.8
27155.2
27873.3
28478.6
29149.5
29729.4
30375.4
30927.9
31546.3
32088
32710
33245.5
33869.6
34358.3
34940.9
35231.9
35742.3
36373.2
36946.6
37636.5
38044.2
38727.7
39502.7
40115.4
40644.2
40645.4
40322.2
40121.9
39812.4
39429.6
39280.1
39242.6
39405.7
38770
16622.4
15378.7
14212
12964.8
11809.2
10567.2
9402.96
8163.93
7034.4
5827.25
4732.96
3621.47
2706.84
1841.72
1182.34
667.895
340.931
141.542
151.853
326.493
501.3
353.858
382.656
684.212
1158.33
1836.56
2732.24
3739.01
4807.15
5889.79
6628.86
5893.88
4845.26
3887.14
3955.61
4902.31
6045.56
7211.82
8422.5
9624.79
10839.7
11899.6
12662.7
13466.4
14649
15853.1
16964
17820.6
18630.6
19716.4
20698.3
21527
22292.4
23242.2
24044.1
24826.9
25706.5
26450.5
27029.2
27763.8
28348.4
29052.7
29636
30292.7
30845.1
31474.5
32015.8
32660.3
33177.5
33782
34073.2
34588
35187.4
35709.9
36330
36654.1
37238.2
37995.1
38691.8
39523.9
40174.7
40442.1
39887.1
39746.7
39305.5
38989.2
38730.6
38216.9
37790
37778.5
37409.9
36346
20344.7
21039.4
24095.6
24927.5
20061.1
17653.8
15431.2
13030.5
10803.6
8404.49
6228.71
3984.33
2237.56
898.22
244.238
-12.0805
137.286
235.956
138.897
154.517
349.075
669.932
1142.72
1778.58
2277.04
1772.48
1152.89
718.11
730.149
1166.95
1861.58
2727.3
3724.61
4808.75
5996.02
7195.61
8425.45
9661
10927.6
12151.5
13373.5
14559.8
15664.3
16418.5
17200.2
18342.7
19368.8
20230.4
21058.6
22093.2
22830.9
23520.3
24408.4
25193.4
25825.5
26604.5
27312
27994.6
28585.7
29215.1
29806.5
30413.5
30974.4
31550.4
32068.2
32701.9
33247.7
33850
34117.3
34621.1
35235
35775.7
36414.7
36767.4
37379
38193.3
38834.6
39586.1
39653.6
38492.9
38908.4
38936.7
38327.7
37842.6
37287.3
36925
36808.7
36756.6
36197.1
35780.4
35384.9
34400.5
33326.9
32259.9
31154.3
28665.6
27488.2
26228.2
19313.3
19319.5
20344.4
20385
21121.7
21872.7
23005.9
22995.4
23901.4
24395.5
24713.2
25837.8
26737.6
27106.3
27476.8
21768.4
20659.3
19461.9
18365.5
17193.6
15488.9
14934.1
13198.8
12605.6
11470.8
10284.1
9146.68
7963.08
6836.8
5678.41
4600.11
3531.7
2603.42
1758.01
1110.62
633.17
334.597
155.927
37.9941
26.266
24.2978
73.0261
161.636
336.682
644.643
1107.99
1769.6
2597.94
3547.45
4590.69
5693.18
6830.02
7987.15
9146.69
10307
11462.7
12616.4
13763.9
14899.6
15957.8
16629.4
17364
18463.8
19590.7
20718.2
21835.3
22885.2
23553.2
24290.7
25438.3
26572.2
27573.3
28197.4
28916.8
30012.2
89.6762
154.639
337.784
636.074
890.793
635.424
362.744
371.119
680.353
1155.05
1851.32
2706.86
3688.05
4731.95
5454.12
4723.81
3713.18
2824.34
2847.72
3739.27
4848.4
6011.42
7206.46
8408.99
9640.3
10883.6
12134.2
13226.9
13974.7
14736.2
15896.7
17087.7
18199.8
19005.2
19779.5
20833.9
21640.5
22362.2
23349
24098.2
24777
25663.7
26462.3
27067.6
27822.3
28384.4
29088.6
29619.1
30289.9
30792.3
31433.1
31917.7
32545.9
32867
33388.1
33985.2
34459.5
35060.7
35348
35869.2
36526.6
36903.4
37567.6
38430.5
39284
39645.2
39653.1
39639
38706.2
38497.9
36809.9
36791.9
36603.7
36515.6
37691.9
36400.9
34704.3
34922.4
35039.6
34987.9
34768.7
34285.7
33767.8
33711.8
33737.1
33638
33594.1
32434
31249.8
30114.6
29990.3
28821.2
27577.3
26351
25571.4
24775.3
24803.4
24962.4
18209.3
18226.8
18231.2
19332.7
19510.8
20483.8
20680.9
21823.9
21906.3
22954.5
23907.6
24831.2
25944
26753.6
26864.6
26846.3
27272.1
27879.4
28409.1
27637.5
26518
25356.2
24145.8
22993
21781.3
20670.9
19475.4
18374.5
17167.6
16078.9
14878.8
15407.3
14902
14935.6
14918
13777.2
13814.2
13806.3
12652.4
11494.8
10333.2
9169.48
8006.08
6846.33
5705.4
4601.68
3556.14
2603.15
1770.17
1105.2
641.052
336.188
153.425
33.1354
-44.2355
-45.8601
-37.147
-35.2092
-39.3951
34.5136
149.406
322.452
637.642
1108.09
1767.32
2590.77
3535.3
4575.92
5670.85
6799.68
7945.43
9099.11
10254.2
11409
12563
13719.1
14878.2
16048.6
17223
18389.7
19539.5
20677
21804.5
22939.3
24006.7
24726.1
25461.7
26557.7
27705.7
28893.3
30145.3
31352.5
32321.3
14305.5
13054.7
10864.4
8383.92
6249.43
3956.45
2229.74
888.538
31.7252
137.518
233.421
133.263
152.581
337.776
634.379
878.538
628.534
338.365
170.309
163.413
343.352
673.384
1162.99
1844.81
2668.42
3610.13
4287.65
3602.61
2669.4
1853.27
1229.36
1238.43
1858.89
2688.39
3713.31
4853.91
6030.15
7209.79
8386.51
9601.23
10854.3
12136.2
13388.5
14485.9
15230.6
15975.3
17135.2
18234.5
19064.8
19826.8
20885.9
21677.4
22399.7
23411.1
24155.2
24820.9
25709.5
26470.8
27052.5
27780.8
28333.7
29024.5
29545
30197.6
30687
31300.8
31608.4
32143.7
32753.8
33224.6
33788.1
34028.7
34510.3
35095.6
35357.2
35886.3
36593.7
36863.3
37140.9
37825.8
38717
38990.5
38992.8
38995.7
38984.7
38912.9
38710.3
38310
37318.3
37414.8
37143.3
37440.2
37486.6
37393.3
37099.6
36609.8
36206
35853.8
35784.1
22354.7
21813.9
20706.2
19498.5
18377.4
17172.6
16061.4
14850.6
13723.6
12519.3
11408.9
10205.8
9083.95
7887.28
6798.72
5631.59
4576.68
3499.37
2621.52
1778.55
1136.73
641.551
323.266
138.642
37.1088
-31.2061
-38.5939
-11.1305
27.6545
82.9166
21.8577
34.6483
32.9248
-59.9495
-27.8927
33.2472
141.972
325.837
623.766
877.794
608.125
321.392
144.16
44.3442
42.7235
153.875
338.801
643.773
1096.89
1470.05
1074.79
638.833
342.198
168.91
167.866
343.2
651.58
1128.81
1776.73
2283
1756.75
1126.33
667.631
370.835
369.14
671.303
1140.17
1847.56
2711.87
3686.84
4721.24
5436.69
4707.53
3667.69
2691.21
1849.85
1223.45
1233.17
1851.84
2682.49
3698.06
4847.11
6024.38
7195.66
8367.22
9573.28
10830.8
12122.1
13359.7
14456.2
15199.8
15963.9
17139.4
18274.8
19040.2
19792.2
20858.1
21643.3
22358.8
23376.7
24113.6
24698.2
25360.3
25963.5
26644.7
27269.7
27902.1
28497.1
29126
29692.8
30264.3
30714.8
31332.3
31611.4
32151
32676.9
32836.6
33364
33863.8
33980.1
34452.3
35017.1
35109.4
35157.9
35570.2
36004.4
36011
35988.4
35922.5
35812.7
35681.8
35155.6
35270.3
35118.3
35223.5
35243
34980.7
35001.8
34950.2
34894.1
34789.3
34664.4
34523.1
34366.3
34418
34291.9
34142.9
-57.176
-57.296
-64.4294
148.641
158.62
155.071
166.418
351.179
350.118
161.133
154.267
349.049
363.669
356.673
160.052
358.05
371.857
346.966
162.01
159.291
153.953
146.881
155.334
153.752
149.054
260.709
336.873
907.491
338.046
344.525
345.063
365.165
349.99
149.719
167.052
348.957
347.095
157.415
34.4568
2.85418
34.4052
34.7553
37.4204
-33.2224
-27.0533
-30.7888
-32.4356
33.3902
141.735
308.146
472.585
306.878
141.574
32.0841
33.0652
150.898
153.972
157.131
42.745
343.104
346.07
339.396
339.586
156.459
36.7301
-31.3971
-42.443
-11.4777
-40.3141
-35.7679
20.3851
76.4705
20.6927
-36.7357
-33.869
-32.981
-34.5515
-29.8518
-29.9792
30.2279
41.6253
144.53
324.356
609.679
880.588
622.97
327.07
143.451
152.395
36.1415
35.198
38.8954
38.4826
152.027
165.695
342.445
641.872
1079.5
1472.03
1097.08
645.089
336.813
340.217
152.111
152.306
346.445
340.205
667.228
718.023
710.918
1176.91
1859.55
2706.68
3688.16
4769.66
5920.91
7114.34
8334
9563.84
10795.5
12019.1
13234.2
14456.6
15601.6
16390.5
17132.5
18192.2
18908.9
19627.1
20706.9
21421.2
22065.4
22706.4
23282.6
23927.5
24493.2
25131.4
25722.7
26343.1
26874.3
27472.3
27614.3
28138.6
28698.6
28787
29259.7
29762.7
29801.5
29848.2
29863
30248.2
30657.6
30593.8
30545.2
30515.7
30043.9
30178.7
30047.6
29908
29746.3
29873.4
29934.8
29710.8
29797.5
29824.6
29541
29528.2
29533.6
29539.6
29532.6
29510.1
29465
29412.1
29356.7
29322.5
29539
29460.1
29328.3
29478.2
19016
17816
17287.7
16162.7
14937.8
13800.5
12584.1
11462.1
10245.7
9113.43
7909.12
6814.97
5642.73
4582.83
3504.16
2620.41
1782.95
1143.01
648.657
326.365
127.63
-34.5582
-28.6288
28.4317
129.76
228.907
133.094
26.7989
31.2117
-32.5578
-32.3586
-3.2007
-32.8308
-29.1166
-30.6075
-38.1841
-32.4451
22.4827
80.0787
18.844
31.1635
148.324
163.702
338.875
630.229
889.509
635.466
338.222
370.151
371.647
669.065
1126.89
1750.06
2265.12
1768.44
1132.02
657.995
347.337
164.36
164.303
147.369
350.149
347.655
345.368
155.258
31.4338
31.5677
-0.0149764
-37.628
32.047
29.3836
145.958
251.782
144.995
153.945
248.031
347.561
355.211
346.817
670.098
668.971
660.47
657.749
1159.36
1174.72
1204.54
1180.6
1237.15
1870.37
2710.04
3686.35
4764.85
5912.51
7104.54
8321.42
9549
10775.7
11992.8
13187.6
14300.8
15056
15847
17031.1
18121
18858.8
19499.2
20157.5
20864.3
21926.1
22616.6
23220.4
23851.8
24433.4
25036.2
25577.9
26124.7
26258.6
26802.3
27391.8
27528.6
28028.2
28485.6
28513.4
28572.4
28610.9
29023.3
29446.7
29382.2
29336.4
29313.8
28831.2
28963.2
28816.9
28673.7
28520.8
28674.4
28752.8
28528.1
28627.8
28667
28400.6
28460.3
28479.2
28502.9
28525
28531.5
28509.5
28466.3
28400.3
28337.6
28276.6
28178.7
28386.1
28305
28168.9
28326.7
26897.8
26399.6
24707.7
24179.5
23022.6
21798.1
20669.8
19496.7
18372
17192.4
16063.1
16099.4
16097.2
16133.1
16140.2
14959.4
15023.5
13864.7
12703.9
11539.4
10371.3
9202.44
8034.85
6871.26
5725.09
4617.61
3569.08
2613.38
1778.06
1110.39
644.36
338.05
154.807
33.5169
-43.0331
-82.5357
-96.7065
-97.4092
-94.7483
-83.9104
-41.0756
-40.0731
-38.6213
-43.6543
-82.8682
-93.4784
-99.7137
-103.796
-103.306
-95.0906
-75.7579
-40.9353
32.0959
101.133
170.222
338.365
645.927
1121.01
1793.17
2626.94
3586.94
4641.79
5756.55
6905.46
8074.9
9251.65
10433.3
11616.1
12799.7
13978.8
15149.3
16302
17431.7
18468.4
19143.3
18416.4
17371.2
16240.3
15091.9
13926.4
12753.8
11576.1
10400
9221.88
8049.83
6883.6
5736.72
4623.92
3571.84
2615.68
1783.29
1113.73
642.653
342.654
168.404
152.374
340.065
645.008
1108.19
1776.54
2610.7
3564.6
4613.11
5720.95
6865.45
8026.71
9192.42
10362.6
11535.6
12708.3
13877.2
15037.7
16185.4
17325.4
18488.9
19666.3
20867.9
22018.7
23073.3
24027.1
24956.6
26087.7
26898.3
27000.5
26699.2
26552
26580.4
27051.1
27767.8
28289.3
27656.8
26707.3
25587.5
24361.9
24340.8
23090.5
21910.3
20769
19633.1
18499.4
17383.2
17345.7
17422.9
16210.8
16131.4
15059.8
13909.4
12746.3
11576.9
10404.8
9229
8056.65
6889.25
5741.73
4630.75
3579.6
2623.05
1788.44
1121.52
652.51
341.112
165.554
76.1604
27.8503
26.6033
-34.5989
-69.0953
-87.0614
-99.5662
-104.691
-105.932
-106.028
-105.279
-98.5131
-91.0552
-64.0007
-31.2916
40.338
161.584
339.348
657.746
1136.94
1804.39
2638.17
3594.62
4657.25
5774.25
6928.74
8100.95
9283.05
10468.4
11655.4
12843
14030.3
15209.1
16376.7
17528.9
18683.8
19828.4
20940.6
21662.1
20911.2
19896.1
19846.6
20975.3
22152.5
23352.4
24250
25082.9
26277.9
27191.7
27300.1
27041.1
26074.2
25787.8
25645.9
25640.5
25509.4
24275.8
23075.1
21903.8
20750.6
19603.8
18453.3
17281.5
17307.2
17386.7
16207.3
15040.5
13875.3
12709.6
11543.2
10371
9199.52
8029.8
6870.03
5725.53
4620.73
3567.51
2614.78
1779.7
1115.62
646.548
339.889
160.259
39.9928
40.1257
38.7664
-36.754
-84.1043
-82.7126
-99.4785
-103.096
-106.977
-109.125
-109.465
-107.438
-106.647
-104.505
-97.2231
-83.3336
-65.4847
-30.8661
38.9183
158.019
344.473
666.96
1149.9
1823.91
2659.41
3622.84
4686.37
5810.44
6968
8146.46
9332.9
10526
11719.5
12916.2
14112.5
15305.9
16489.1
17669.3
18837.3
19982.7
21059
21762.8
20978.8
19906.3
18769.3
17605.5
16435.8
15260.4
14071.7
12881
11686.9
10497.8
9307.33
8124.44
6947.68
5793.12
4671.05
3611.69
2650.35
1815.46
1141.88
660.433
338.069
155.401
39.3932
-33.0834
-33.0287
-29.8223
158.367
148.35
153.432
158.317
344.645
345.346
340.214
345.523
676.183
678.055
678.398
673.489
1158.29
1165.64
1168.01
1161.14
1844.43
1843.49
1840.72
1834.77
2670.34
2676.17
2680.08
2682.88
3651.2
3648.62
3643.37
3634.77
4699.13
4710.13
4716.9
4718.93
5851.42
5847.36
5838.87
5825.26
6984.2
6998.68
7008.03
7013.94
8190.71
8188.73
8180.29
8164.62
9352.82
9369.46
9377.8
9377.49
10565.6
10547.7
11743.5
11763.4
12963.6
12942.8
14143.5
14166.5
15368.3
15342.2
16532.1
16560.6
15955.1
17086.4
17102.4
17109.5
17118.2
18130.7
18845.7
19579.1
19571.3
20768.8
20761.2
19572.4
18417.5
18399.9
17247
16112
14970.3
13815.4
12652.5
11485.6
10319.1
9154.17
7993.93
6839.43
5701.55
4598.39
3553.36
2602.06
1770.08
1103.6
641.543
338.521
151.703
32.2127
31.66
-36.659
-78.3075
-92.6117
-106.163
-104.733
-105.332
-106.677
-93.0534
-78.8375
-36.3049
-42.003
30.672
98.4172
164.125
330.655
635.499
1104.54
1768.35
2591.99
3539.88
4580.11
5676.76
6804.03
7948.72
9100.34
10259.4
11419.5
12580.8
13736.9
14884.3
16013.4
16054.4
17170.4
18202.4
18224.8
17141.2
16034.6
14880.5
14921.7
13771.1
12612.3
11447.5
10287
9125.35
7970.44
6820.04
5687.5
4585.68
3542.65
2593.9
1768.22
1103.77
636.61
337.118
166.241
158.318
149.69
34.1338
-39.7268
-77.1653
-96.3528
-105.132
-106.204
-102.682
-85.5354
-89.7014
-87.5457
-70.3469
-36.858
-37.7577
-83.5991
-101.821
-105.776
-96.2009
-104.277
-103.863
-105.92
-102.365
-107.828
-107.929
-107.443
-107.044
-100.342
-94.7947
-68.3042
-35.9859
39.0106
152.403
328.326
643.671
1113.19
1769.14
2589.18
3529.31
4572.32
5664.48
6790.22
7929.78
9079.64
10234.3
11392.8
12551.3
13707.8
14853.6
15988.7
15970.4
14834.1
13686
12532.9
11373.7
10217.8
9062.48
7916.35
6777.41
5657.15
4565.36
3530.5
2589.05
1770.96
1111.78
643.609
320.361
145.783
33.9338
-38.9866
-71.4803
-39.7027
27.9701
144.781
327.28
642.068
1111.99
1768.75
2583.88
3523.25
4558.22
5648.18
6767.91
7904.77
9050.39
10204.2
11360.6
12518
13670
14814.1
13662.2
12511
11352.9
10195.7
9041.66
7896.37
6760.46
5642.18
4553.7
3521.71
2584.46
1771.86
1114.43
644.593
323.934
142.054
137.492
323.338
647.07
1120.98
1779.16
2593.7
3533.81
4570.81
5664.99
6790.84
7935.45
9088.43
10245.3
11403.8
12565.4
13728.2
14894.4
16062.4
17231.2
18396.8
19558.6
20716.1
21870.9
23023.5
24200.3
25394.7
26601.9
27789.1
29013.6
30297.9
31638.7
32638.7
33587.2
35132.9
36703.3
37931.1
38531.1
38483.3
38033.6
37310.2
36587
36691.9
37358.7
37540.1
37872
37902.8
38065.7
38056.5
38351.4
38823.4
39405.7
39257.9
39692
39679.3
39428.9
39567.1
39060.5
38804.3
38837.6
39223.8
39232
38961.7
38645.5
38600
38555.8
38601.4
38712.7
38878.9
39113
38942.5
38973
38743.1
38911
39154.2
39224.8
39672.6
39730.4
39737.6
39939
40154.3
40217.5
40309.2
40634
40633.5
40535.5
39967.8
40408.7
40292.4
38747.1
36618.4
36751.7
34925.7
34968.2
34945
33263.7
33230.1
33018.9
32782.4
32629.5
32570.6
32331.6
32040.6
32052.7
32276.1
32873.3
32869.6
32171.4
31103.3
31185.8
31235.6
31256.9
30202.2
29066.2
28970.9
28272.7
27557.1
27498
26354.9
26386.8
25627.7
24911.1
24760.4
23573.2
23639.7
23689.4
23733.6
16555.6
15360.4
14158.9
12955.9
11754.2
10556
9359.59
8169.28
6989.24
5828.82
4702.74
3638.26
2676.86
1842.28
1166.38
673.245
335.388
154.177
13661.9
12509.5
11350.8
10193.3
9037.96
7893.41
6758.37
5638.73
4549.27
3518.93
2582.05
1769.56
1113.23
641.846
323.823
136.198
139.067
330.012
652.178
1125.28
1780.47
2592.34
3532.65
4570.08
5664.75
6791.01
7936.71
9090.92
10250.4
11412.2
12578.4
13745.7
14915.4
16085.8
17257.4
18426.9
19594.6
20760.8
21926.3
23093.4
24270.8
25458.6
26665.5
27887
29145.7
30466.4
31956.1
33664.1
35381.1
36483.3
37258.5
38277.8
38723.7
38550.7
38219.1
38059.5
37638.6
37222.3
36146.7
34854
32658
31848.2
30307.9
28970.6
27819.6
26588.9
25460.8
24237.5
23113.6
21900.1
20783.1
19561.8
18432.5
17218.7
16103.2
14885.4
13754.8
12543.2
11428.2
10218.6
9093.99
7893.55
6803.37
5633.45
4576.2
3497.88
2615.42
1777.78
1139.58
642.843
324.952
130.663
642.924
1830.11
9382.64
8191.52
7009.99
5847.97
4719.98
3651.58
2684.18
1846.37
1168.39
673.278
332.316
148.564
146.975
336.17
659.541
1135.9
1794.28
2612.81
3558.13
4599.69
5701.01
6834.97
7988.61
9153.49
10327.6
11507.5
12692.4
13878.8
15065.5
16250.9
17434.2
18615.1
19795.7
20979.8
22174.6
23371.3
24570.5
25769.3
27021.5
28239.2
29108.7
29856.7
31068.2
32446
34132.2
36015.4
38027.1
37697.2
38997.1
39010.8
39817.6
40119.5
40417.1
39998.4
40043.4
39911
39850.3
39676.1
39608.5
39818.9
38175.4
38167
36559.2
35413.9
34482
34816
33171.7
33252.3
33277.2
31788.9
31749.1
31690.3
31585.5
31467.2
31349.3
31120.5
31090.4
30070.9
30179.9
30207
29086.1
28420.3
27813.1
27629.7
26465.6
26205.5
24882
23594.1
22324.8
21117.7
19931.4
18754.2
17598.4
15850.2
15258.7
13489.4
12867.2
11718.1
10478.4
9334.16
8104.18
6975.81
5775.64
4697.94
3591.55
2667.36
1800.05
1154.88
656.482
338.332
148.859
38.6727
-34.0987
-80.2265
-84.3183
-100.507
-103.965
-107.009
-108.851
-109.692
-109.716
-109.383
138.462
334.412
659.806
1130.49
1783.43
2594.28
3535.05
4573.07
5668.97
6796.57
7943.42
9099.78
10261.7
11427.6
12598.5
13770.5
14944.3
16118.7
17293.8
18467.5
19641
20814.1
21987.6
23161.5
24337.2
25519.8
26761.2
28019.3
29300.3
30631.3
32134.9
33822.2
35676.8
37201.7
37862.1
37984.6
37968.3
37290.6
37227.5
37066.2
36818
36601.7
36812.4
36902.5
36595.8
37012.1
36988
37128
36858.6
36711.3
36733
36990.3
37135.2
36874.2
36896.9
36674
36840.6
37021.7
37227.3
37042.7
36986.6
37273.9
37858.2
37279.2
37085.6
36886.8
37066.5
37273.1
37401.6
37144.6
36854.7
37078.3
37137.3
37377.4
37990.2
37995.4
38390.4
38590.3
37864.9
35936.2
34063.4
32374.4
30952.7
29623.7
28425.9
27565.2
28276.4
29462.5
30788.7
32261.8
33951.6
35821
37415.8
37412.2
35937.5
33955
32197
30775.5
29496
28323.1
28248.5
26976.9
26805.9
25657.7
24482.5
23298.7
22111.8
20925.4
19741.8
18561.5
17381.9
16201.3
15019.9
13837.8
12656.4
11475.9
10300.7
9131.08
7969.51
6819.3
5688.8
4589.96
3548.85
2603.16
1788.4
1132.27
655.689
329.359
143.918
137.223
322.865
657.111
1134.94
1787.16
2598.32
3540.35
4579.56
5676.28
6805.35
7953.61
9112.54
10279.1
11450.3
12626.7
13804.3
14983.2
16162.1
17340.9
18518.7
19696.4
20876
22057.1
23237.9
24415.9
25589.3
26749.1
26818.9
25606.1
24421.5
23241.1
22058.9
20876.7
19693.4
18513
17333.8
16155.3
14976.4
13798.5
12622.1
11446.3
10275
9107.95
7948.79
6800.79
5671.8
4576.46
3540.11
2602.55
1790.2
1134.9
655.855
322.395
138.095
680.393
945.674
670.339
344.586
367.606
249.036
159.402
355.747
355.398
346.314
674.305
715.363
1188.33
1179.95
681.26
673.591
1181.42
1166.84
2317.17
1161.72
665.957
668.598
943.065
672.777
1186.45
1176.21
1198.9
673.154
937.683
675.468
348.837
153.443
243.637
339.699
335.402
263.698
115.007
266.255
120.11
118.826
117.211
-1.17056
-33.3379
-30.3539
32.3937
27.577
135.397
231.816
140.043
150.351
162.454
342.498
339.287
366.139
642.314
894.758
639.213
679.435
1163.62
1224.71
1828.11
2611.82
3514.57
4180.26
3527.8
2616.19
1823.39
1833.5
1231.9
1221.41
1835.36
2650.2
3602.16
4624.22
5346.28
4646.14
3629.75
2675.82
1835.65
1143.69
673.465
684.164
364.638
344.123
152.688
34.1117
33.4345
31.5964
-37.2739
-34.5053
30.8603
28.1999
-35.2282
-29.5753
-31.833
32.8
32.9892
155.072
161.883
351.443
353.057
351.902
148.846
149.461
31.5649
-35.667
-36.2603
-35.0021
-0.613289
32.4489
35.4235
146.349
145.694
144.61
145.735
341.392
350.301
345.889
151.336
146.856
340.994
907.939
341.639
253.296
345.591
250.923
340.843
147.56
227.374
125.308
138.704
147.875
150.486
151.911
151.403
357.267
349.568
324.373
356.074
500.202
724.124
1148.2
1742.01
2221.56
1745.38
1139.31
676.676
685.47
374.981
365.861
687.307
670.593
676.45
683.876
1180.09
1212.69
1843.53
1828.55
2665.07
2665.68
2632.96
3620.04
4746.77
4861.38
5901.44
7043.61
8211.55
9385.53
10493.6
11222.9
11988.6
13111.2
14178.3
14882.9
15603.2
16617
17286.9
17895
18515.1
19095.6
19682.1
19824.8
20362.2
20885.4
20978.4
21474.2
21957.1
21959.8
21942.5
21905.3
21847.8
21780.1
21256.2
21446.3
21319
21205.8
21068
21184.8
21303.1
21084.8
21213.9
21315.9
21072.7
21179.8
21266.6
21042.6
21039.7
21008.7
21104.1
21078.9
21075.6
21066.9
21056.8
21062.8
20952.1
20962.4
20949.6
21151.1
21046.2
20921.4
21137.5
21018.7
20869.8
21060.1
22020.3
22185.4
21625.7
22314.7
22123.5
22257.2
21675.2
22363.8
22144.3
22247.2
21645.6
22239
22277
21703.5
22408.4
22426.9
21767.9
22437.1
22446.2
21784.2
22454.8
22458.3
21758.9
22345.2
22325.1
21735
22349
22266.2
22513.1
21824.6
22425.2
22310.5
22531.8
21840.9
22421.3
22274.1
22465.8
21786.7
22329.1
22114.5
22254.5
22419.2
22547.9
22627.7
22689.3
22727.8
22743
22738.6
22686.1
21711.7
21651.9
21604.2
20585.8
20508.4
20319
19286.3
19096.4
18049.1
17837.1
16762.5
15624.5
15505.4
14321.5
13134.8
11993.4
11907.8
10641.2
9406.7
8217.86
7062.62
5906.95
6052.28
6047.92
7100.41
8231.83
9312.2
10028.9
10803.5
11955.5
13126.1
14215.6
14940.3
15682.2
16717.6
17403
18022.4
18667.6
19282.1
19919.3
20512.6
21129
21692.9
22268.8
22780.2
23313.6
23401.7
23480
23942.6
24409.6
24423.6
24413.5
24372.2
24302.8
24218.3
23707.9
23893.6
23827.4
23606.8
23345.2
23555.6
23686.5
23491.7
23610.2
23702.6
23485.3
23588.7
23571.1
23577.5
23660
23451
23447.4
23440.1
23430.1
23414.9
23397.8
23582.6
23477.9
23451.5
23450.1
23327.3
23514.3
23402.3
23263.4
23424.1
24433.2
25197.3
25075.4
24290.2
24536.4
23985.3
24590.8
24382.7
24588.2
24048.9
24629.5
24695.1
24109.7
24716.3
24453.9
24607.5
24054.9
24613.6
24636.7
24076.3
24649.6
24651.2
24100.5
24669.7
24537.3
24829.7
24227.8
24831.8
24789
24207.3
24768.4
24582.7
24825.4
24214.1
24793.6
24570.7
24756.9
24126.4
24355.1
24932.8
25006.8
25707.8
25537.9
25371.3
25974.8
26107.8
26183.3
25917.8
26021.4
26064.5
26112.5
26128.8
25806.7
25843.5
25838.6
25824.3
25800.6
25736.1
26024.9
25978.5
25905.9
25835.9
25706.9
25931.8
25828.1
25669.3
25888.6
26556
26409.4
26958.9
27132.1
27746
27646.8
27101.1
26584.2
26427.9
26975.8
27191.2
27807.9
27660.6
27088.6
26582.4
27155.1
27222.8
26658
26425.5
26953.9
27258.3
27894
27618.2
26940.1
26451.3
26956
27000.3
26486.2
26755.9
27343.6
27342
27965.2
27647.8
27947.8
26938.9
25746.9
24483.1
23318.7
22070.5
20293.6
19725.6
17944.6
17313
16169
14906.5
13798.1
12571.7
10847.8
10219.3
9106.56
7901.72
6802.58
5628.38
4583.86
3510.68
2579.67
1744.27
9407.12
8174.04
7040.68
5838.4
4740.14
3633.28
2711.41
1846.42
1180.68
670.576
339.318
137.936
119.731
945.356
939.355
951.915
695.368
685.749
1213.71
1303
1357.3
2009.23
2849.18
3830.16
4915.6
6063.8
7250.9
8460.04
9676.85
10889.2
12087.2
13253.6
14354.9
15238
16069.3
17174.3
18314.2
19252.2
20120.9
20929.3
21901.7
22735.9
23521.4
24430.8
25197.3
25880.9
26659.5
27389.4
28216.4
28886.2
29396.5
30070.3
30565.6
31208.2
31666.9
32236.2
32616.3
33186
33770.7
34250.9
34792.9
35241.7
35751.8
36088.4
36647.6
37268.3
37791
38465.8
39042.5
39742.1
39850.6
39681.8
39582.6
39472.8
38800.9
38339.4
37615.1
37132.3
36501.1
35959.5
35643.8
35132.7
31835.7
30784.3
30372.4
29769.8
29630.2
29192.8
28574.5
28474.1
27995.8
27304.8
26591.4
25798
25152.1
24386.3
23484.4
22707.4
21871.5
20930.6
19889.3
19627.9
19103.1
18257.8
17183.5
16014.7
15120.4
14216.2
13234.9
12079
10890.7
9683.78
8468.95
7260.32
6072.83
4926.89
3848.76
2864.34
2031.73
1419.32
1324.09
1908.7
2362.29
1905.35
1980.99
1979.06
1966.34
1995.84
2844.52
3822.49
4902.49
6050.9
7240.67
8452.6
9671.7
10886.8
12089.9
13272.3
14419
15374.9
16286.5
17170.3
18288.4
19252.2
20132.5
20972
21929.7
22753.8
23543.5
24459.7
25225.8
25914.6
26683.8
27383.4
28221.5
28867.3
29422.7
30059.8
30595.3
31205
31711
32275.9
32668.8
33246.3
33834.8
34319.9
34870
35329.7
35849.9
36200.3
36778.1
37407.9
37951.5
38625.2
39225.1
39902.6
39977.4
40257.8
40095.4
40158.5
40388
40457.6
40496.2
40129
39735.4
39485.7
38940.4
38498.9
38235.1
37668.8
36958.7
36353.4
35969.8
35603.1
35436.7
34984.5
34390.8
33885.4
33276.9
32707.7
32100.2
31574.6
30997.8
30431.9
29821.6
29231
28604
28014.7
27316
26594.7
25793.9
25142.3
24655.8
24374.7
23468.6
22690.4
22182.2
21856.2
20914.8
19873.3
19084.1
18236.3
17159
15987.7
15094.5
14519.5
14193
13209.2
12050.6
10859.2
9649.15
8432.35
7222.86
6036.4
4891.57
3813.44
2830.91
1999.67
1401.6
1342.04
1994.13
2833.27
3810.49
4892.43
6039.39
7227.12
8437.48
9655.93
10870.3
12069.9
13238.1
14340.6
15221.3
16052.8
17159.6
18301.8
19242.7
20112.2
20920.2
21892.4
22727.2
23513.3
24424.5
25193.2
25879.6
26662.9
27397.3
28230.1
28903.2
29420
30097.7
30601.3
31250.4
31721.1
32300.9
32701
33287
33891.2
34390.7
34956.2
35424.8
35957.9
36330.6
36932.2
37595.9
38165.1
38851.6
39448.6
39375.1
38759.5
38077.8
37522
36877.2
36285.9
35922.9
35393.3
34926.2
34368.1
33877
33281.7
32698.2
32299.2
31729.5
31219.7
30606.7
30069.2
29429.9
28873.5
28226
27386.9
26686
25913.8
25224.2
24456.7
23540.2
22751
21925.6
20968.4
20129.9
19248.5
18284.5
17165.3
16282.8
15769.7
15373.1
14414.4
13267
12084.3
10880.9
9665.25
8445.7
7233.82
6044.04
4895.94
3816.69
2840.4
1987.89
1301.6
876.139
879.827
1310.66
1272.8
805.239
800.337
694.517
947.757
685.35
680.212
1208.21
1305.35
1289.69
1268.29
1212.81
1204.27
1902.95
1963.87
1952
1881.99
2337.88
1875.63
1198.85
1866.75
1864.18
1868
2751.12
2810.35
2734.94
1857.6
1169.06
682.803
676.661
664.159
672.299
677.887
1180.75
1214.48
1863.06
1851.38
2718.39
2712.46
2721.12
1857.73
1165.88
672.999
678.856
666.349
663.322
1149.89
1162.41
1157.45
1849.1
1827.17
1847.17
1939.83
1956.61
2758.37
3740.03
4811.82
5954.55
7142.66
8358.02
9583.73
10807.6
12020.3
13236.1
14377.6
15158.9
15931.1
17133.8
18220.1
18967.2
19708.2
20791.1
21504
22138.8
22848.9
23514.6
24526.9
25167.2
25735.3
26367.6
26912.2
27544.1
27769.2
28340.4
28928.4
29415.9
29983.2
30129.9
30623.1
31145.8
31225.4
31638.2
32178.2
32288.2
32306.2
32265.2
32225
32190.2
32131.7
32047.8
31970.2
31895.6
31773.5
31569.7
30982.3
31041.6
30846.6
30880.7
30927.1
30968.3
30990.4
31045
31030.7
30999
30943.3
30829.9
30739.3
30644.2
30538.4
30448.2
30560.7
24334.7
22583
20144.5
17833.1
17813.6
17768.5
15516.5
14411.6
13211.8
10902.8
8509.76
6254.63
4030.59
2211.75
895.046
144.581
148.305
146.037
358.381
355.569
681.906
688.957
683.971
350.705
347.357
376.15
385.532
357.545
655.175
629.408
726.539
926.418
969.343
1254.15
1803.11
2228.87
1755.41
1151.79
680.201
679.352
691.871
737.697
1169.88
1156.75
1142.58
1795.17
1801.24
1826.32
2640.7
2641.42
2576.84
2689.83
3164.35
3731.93
4649.17
5657.79
6372.44
5664.67
4622.61
3598.45
3591.9
3617.61
2758.44
2744.69
3594.87
4572.25
5283.23
4589.81
3580.95
2636.96
1821.06
1152.73
1234.66
1828.29
2621.56
3611.35
4720.03
4864.99
5893.65
5867.7
5983.22
7025.55
8141.11
9212.43
9930.48
10699.2
11815.9
12881.3
13575.1
14283.5
15289.2
15931.7
16517.7
17094.4
17240.6
17790.7
18321.9
18402.1
18896.1
19368.3
19352.4
19320.7
19277.2
18768.3
19007.7
18909.4
18801.6
18655.3
18415.1
18640.8
18787.8
18552
18692.1
18801.9
18551.1
18665.9
18759.2
18530.6
18556.2
18528.1
18619.8
18700.5
18691.4
18683.2
18676.7
18669.1
18666.6
18571.7
18466.4
18475.6
18435.9
18644.4
18534.1
18401
18630.5
18500
18340.3
18545.1
145.094
337.895
674.049
1154.94
1813.16
2637.62
3589.03
4633.52
5736.73
6874.38
8034.07
9206.53
10388.7
11576.4
12768.5
13961.5
15154
16344.3
17530.5
18711.2
19883.8
21040.1
22156.3
22917.7
23596.5
24710.8
25941.4
27229.2
28556.2
29885.5
31218.6
32555.6
34013
35063.1
36174.8
35974.5
36762.5
37770
37946.9
39299.5
39367.3
38107.5
36774.4
36120
35754.5
34286.4
34319.1
32900.2
33036.5
31678.4
31765.7
31797.9
30426.5
30406.9
30354.4
30290.5
30212.5
30116.7
30147.1
30079.7
29346
28599.5
28629.8
28670.2
28779.9
29031
29465.9
29325.8
28565
27432.6
27763.5
27970.3
27498.3
26192.7
24840.8
23574.1
22338.4
21133.2
19946
18764.2
17572
16403.2
15225.9
15235.8
15285.4
15911.4
15337.2
14194.9
12920.7
11798
10524.6
9387.55
8122.89
7023.8
5793.04
4726.03
3590.08
2706.6
1825.98
1181.9
659.892
337.285
139.399
40.2643
-29.4002
-76.1782
-97.3394
254.735
255.723
252.125
-6.748
-8.9747
-4.58661
257.844
253.008
157.124
149.764
148.559
253.893
348.237
358.814
348.515
670.455
667.404
659.505
656.704
666.833
1174.12
1230.13
1233.14
1875.32
2730.71
3708.61
4788.07
5935.74
7127.81
8345.82
9575.01
10803.7
12022.6
13216.1
14344.9
15114.4
15890
17060.2
18206
18947.1
19668
20751.3
21456.2
22099
22802.7
23465.2
24475.5
25122.1
25682.8
26261.3
26465.3
27052.9
27663.7
28177
28760.1
28899.8
29406.7
29948.2
30033.4
30492.1
30990.7
31037.3
31075.6
31064
31388.9
31775.6
31744.1
31690.4
31620
31170.7
31324.5
31247.2
31109.4
30923.3
30421.2
30554
30686.6
30778.4
29829.7
28638.8
27360.1
25427.7
24861.8
23015
22422.3
20604.1
19978.7
18801.8
17538.7
16393
15150.2
13355.5
12696.8
11546.8
10314.2
9180.84
7967.86
6867.75
5690.43
4631.48
3548.77
2631.72
1803.74
1181.85
677.39
646.266
668.779
663.883
672.821
717.502
704.526
658.157
1110.66
1119.75
1142.15
1131.69
1121.47
1135.4
1238.67
957.463
920.258
623.144
722.921
554.404
555.309
863.405
861.394
1270.83
1306.26
1357.32
1917.32
1782.22
1731.91
1764.99
1765.95
1786.65
1701.33
1702.74
1772.22
1773.59
1770.88
1764.31
1768.28
1767.24
1765.96
1681.34
1696.27
1863.34
1864.01
1781.17
1775.31
1766.62
1761.21
1769.04
1771.82
1849.78
1851.67
1681.3
1663.42
1747.11
1748.08
1749.62
1744.34
1751.44
1754.22
1747.9
2542.5
3455.82
3482.08
2528.48
2513.2
2514.62
2528.48
2537.58
2558.47
2682.81
2157.09
2692.6
2606.25
2601.56
2583.2
2570.65
2566.28
2569.99
2577.58
2592.2
2612.39
2620.07
2709.85
2171.69
2695.42
2574.61
2555.25
2542.96
2532.22
2533.24
2546.96
2566.72
2677.27
2167.75
2695.3
2585.22
2593.04
2536.67
2653.8
2200.53
2781.08
2679.97
2676.63
1903.61
1905.12
1909.02
1273.15
1315.62
1370.93
1934.36
1915.12
2690.94
2689.33
2684.99
3601.16
3592.42
3602.4
3621.73
3739.04
3673.23
3534.11
3518.62
3536.37
3507.08
3486.32
3508.3
3408.58
3415.57
3497.52
3474.19
3494.26
3540.71
3559.52
3547.71
3531.47
3518.16
3507.49
3500.57
3498.15
3500.34
3508.35
3517.89
3530.28
3541.58
3517
3470.94
3450.45
3476.53
3392.88
3383.01
4020.18
4660.97
4674.2
4541.66