/*--------------------------------*- C++ -*----------------------------------*\
  =========                 |
  \\      /  F ield         | OpenFOAM: The Open Source CFD Toolbox
   \\    /   O peration     | Website:  https://openfoam.org
    \\  /    A nd           | Version:  7
     \\/     M anipulation  |
\*---------------------------------------------------------------------------*/
FoamFile
{
    version     2.0;
    format      ascii;
    class       volScalarField;
    location    "19";
    object      p_rgh;
}
// * * * * * * * * * * * * * * * * * * * * * * * * * * * * * * * * * * * * * //

dimensions      [1 -1 -2 0 0 0 0];

internalField   nonuniform List<scalar> 
15284
(
110099
110135
110073
109926
109556
108895
107518
105230
100786
94414.9
83374.7
71702
54430.7
39544.1
23087.4
12511
35272.1
53489.8
71220.3
79399.7
72760.1
56325.6
46895.7
43499.4
36542.3
35853.5
36857.8
29902
31305.8
38630.1
43356.7
47743.4
56366.3
73378.5
79719.4
86548.6
110089
110112
110043
109902
109523
108893
107514
105276
100819
94454.4
83373.3
71520.3
54142.8
39566.1
23437.8
12914.1
12577.4
16271.5
22465.7
34823.4
52966.4
71155.2
85502.4
91611.8
86577.3
86921.2
96345.7
102378
106071
108305
109601
110321
110712
110919
111026
111087
111120
111144
111162
111169
111176
111167
111175
111173
111180
111184
111183
111182
111175
111166
111153
111141
111126
111111
111095
111078
111060
111042
111022
111000
110975
110951
110923
110893
110865
110832
110782
110732
110677
110642
110609
110589
110607
110585
110606
110529
110422
110269
109988
109578
109451
109390
109133
110633
110649
110634
110605
110498
110322
109905
109226
107804
105512
101005
94589.1
83474.5
71588.2
54200.4
39603.3
23487.5
12958.3
12229.3
23168.4
28806.7
24273
24386.1
36238.4
53376.3
71608.2
85414.7
95169.7
101575
105549
107213
105511
101605
96112.2
96144.1
101569
105361
107930
109405
110228
110656
110880
110999
111067
111110
111131
111141
111162
111173
111177
111167
111136
111149
111164
111174
111176
111172
111165
111154
111144
111129
111115
111099
111085
111069
111053
111035
111017
110996
110976
110954
110933
110901
110867
110825
110785
110742
110685
110658
110641
110667
110712
110661
110643
110537
110405
110234
109939
109667
109237
108851
108178
109604
109545
109448
109365
109777
109919
110024
110072
109925
109063
106126
97635.1
77100.8
47945.3
17674.5
6579.03
13395.9
16381
14393.9
13464.9
22418.1
36086.3
52636.1
70855
78697.3
70917.9
53258.5
36569.6
36039.3
53664.5
71718.7
85438.2
94872.8
101569
105779
108270
109586
110314
110695
110898
111009
111069
111098
111107
111130
111150
111155
111160
111119
111107
111113
111120
111144
111144
111148
111146
111137
111126
111116
111103
111092
111077
111064
111047
111033
111016
110998
110982
110960
110944
110917
110884
110840
110796
110753
110696
110679
110662
110643
110613
110640
110669
110649
110582
110454
110272
110024
109720
109270
108907
108413
108788
109090
109359
109577
109786
109982
110126
109758
109777
109635
109669
109640
109661
109575
109681
109624
109493
109566
109472
109427
109256
109080
109537
109589
109738
109865
109952
110029
110039
110080
110199
110164
110022
109688
109081
107944
106009
102327
96115.4
85575.9
72730.9
54082.6
36425.9
20767.2
12974.8
10426.7
7727.41
7188.62
8945.38
14136.9
23372
35670.4
54879
73734
86345.1
95034.6
101423
105701
108157
109304
109710
109667
109714
109929
110056
110110
110116
110077
110050
109991
109923
109818
109689
109587
109542
109536
109448
109307
109192
109111
109105
108986
10953.5
13798.5
21854.3
35909.8
43384
36235.9
22085.7
24632.5
35323.9
53841.8
71412.5
85498.8
94807
101220
103842
101036
95003.3
86694.8
85936.1
94976.7
101231
105538
107996
109425
110227
110660
110884
111000
111045
111070
111071
111095
111131
111151
111151
111147
111159
111152
111148
111147
111141
111141
111138
111131
111124
111109
111100
111088
111077
111062
111048
111031
111017
110994
110984
110970
110953
110932
110897
110867
110815
110760
110716
110667
110636
110623
110604
110585
110578
110582
110568
110589
110589
110586
110633
110608
110599
110583
110558
110549
110495
110406
110313
110141
109932
109642
109443
109649
109754
109902
109740
109966
110071
110152
110179
110166
110209
110197
109860
109900
109935
109804
109877
109724
109827
109761
109846
109780
109727
109679
109615
109586
109596
109425
109285
109124
109022
109045
109211
109351
109463
109534
109557
109605
109687
109825
109976
110047
110039
110057
110058
110037
109999
110189
110257
110136
110074
109980
109878
109696
109336
108322
105954
101652
95124.8
86311
73629.2
54699.8
35055.3
21900.8
14122.2
8834.3
6191.35
4650.17
4700.24
7663.01
6035.62
7624.08
11199
20865.1
35143.5
53270.8
71479.9
85849.6
95682.8
101776
105367
107482
108746
109496
109910
110118
110193
110187
110143
110080
109992
109889
109824
109802
109747
109671
109584
109548
109512
109417
109308
109202
109101
108982
108917
110084
110157
110066
109296
106557
98121.8
75207.9
47637.3
7022.9
13647.7
16404.8
13402
13694.7
21647.9
34933.1
42364.9
35458.5
21465.5
14595.5
15415.9
22470.1
34390.6
54040.8
71506.1
85074.7
94901.8
98680.5
94335.1
84968.8
71704
55172.4
55445.6
72024.5
85250.4
94611.3
101537
105783
108156
109518
110264
110671
110882
110994
111054
111083
111094
111106
111094
111034
111034
111083
111040
111089
111121
111121
111121
111123
111118
111104
111092
111078
111068
111055
111042
111024
111006
110977
110971
110962
110949
110936
110911
110891
110862
110828
110790
110731
110669
110615
110557
110526
110547
110493
110416
110300
110158
110009
109864
109773
109591
109407
109298
109143
109069
109006
108998
108994
109017
108965
109730
109761
109822
109877
109935
109996
110063
110129
110178
110194
110154
110010
109655
108979
107599
105304
100843
94397.7
83401.6
71686.4
54593.2
39455.2
22913.2
13509
7429.9
6049.49
4229.94
5498.57
8377.25
9846.75
8107.9
8068.91
7813.23
3116.53
4859.18
7289.94
13489.1
20923.3
36461.3
43062
34953.4
21604.6
12812.9
8068.89
9725.17
15052.6
22234.4
32980.3
53234.7
61650.7
51509.6
34165.8
22154.4
14977.9
12567
23167.3
35356.9
51138.6
71487.3
78775.6
70161.8
52471.6
35751.6
24976.8
23943.3
34133.9
52718.7
71332.4
85687.5
95043.6
101466
104089
101195
94779.5
85529.2
71989.1
54163.4
54702.4
72173.4
85429.7
94883.6
101405
105609
108073
109490
110260
110665
110869
110975
111028
111049
111054
111061
111076
111085
111073
111076
111084
111028
110995
111016
111063
111070
111041
110993
110995
111001
111001
110989
110975
110949
110928
110924
110885
110881
110871
110842
110823
110794
110753
110718
110686
110647
110605
110555
110508
110441
110364
110282
110197
110121
110078
109986
109908
109818
109692
109609
109546
109463
109411
109311
109294
109293
109297
109229
109196
109187
3716.44
3365.6
2713.84
13397
13297.1
13059.5
13496
22291.3
22393.1
13527
13140.9
22302.6
22112.7
23026.4
13039.4
22392
22256.9
22564.6
12792.1
12976.3
13641.3
14363.6
14032.7
13584.3
14013.3
18072.7
19423.3
44423.2
19407
22528.8
22563.3
22375.8
22434.6
13625.6
13579.6
23012.5
22713.6
13958.6
9018.7
6079.35
7856.16
8374.79
8608.09
5136.83
4510.58
5629.47
5073.77
10972
11566.1
23833
28146.6
21886.7
13628.8
8426.34
8317.72
14258.6
13766.5
14356.5
9495.97
22363.6
22519.3
22422.5
23210.9
13335.6
9445.47
5638.27
4635.96
5452.55
4265.37
3811.94
7951.21
10085.4
8106.18
4132.41
4357.4
4713.78
4838.81
4962.84
4211.28
9102.92
8098.04
14152.9
20661.8
36015.8
43576.1
36387.4
21408.6
12938.2
13865.5
9616.29
8560.8
8372.67
9297.53
15349.5
15569.2
23874.5
34265.3
52339.5
61589.8
52924.9
34197
21895.6
22726.8
14100.2
13935
22866
22463.5
36328.5
37127.6
36579.8
54631
71493.8
85041.2
94810
101372
105535
108034
109450
110213
110606
110799
110893
110938
110955
110954
110944
110908
110881
110884
110907
110900
110848
110803
110850
110850
110840
110822
110815
110775
110737
110721
110739
110709
110677
110629
110627
110606
110560
110531
110471
110448
110428
110381
110332
110284
110245
110213
110162
110108
110059
110034
110001
109957
109911
109804
109761
109798
109797
109766
109727
109701
109656
109631
109594
109617
109608
109583
109571
109529
109975
110077
110128
110171
110215
110248
110256
110213
110070
109724
109026
107657
105272
100744
94188.7
83077.7
71282
53924.9
39397.8
24273.3
14010.7
4321.76
5611.71
6934.41
13846.6
16809
13968.8
7067.82
7903.29
4717.09
4754.64
5779.77
4942.94
4654.67
4902.11
3958.56
3873.95
9036.9
10434
8003.91
8411.27
13870.4
15744.3
22331.8
37259.6
43976.5
36587.6
22946.4
23954.1
24813.8
37188.9
52133.3
69975.1
77774.3
70335.6
51790.9
35987.8
25005.9
15430.7
13859.3
13624.4
23275.9
23252.8
23101.3
13621.5
8751.62
8257.41
5978.43
4795.61
7854.94
7870.27
14077.4
17880.8
14794.9
14206.5
17919.5
22747.5
22785.8
22821
37986.7
36633
35820.2
36220.2
53659.4
54317.7
54861
55263.2
55321.6
71898.6
85293
94923.2
101425
105542
108016
109417
110177
110571
110767
110858
110888
110880
110901
110900
110861
110801
110824
110845
110793
110768
110755
110732
110719
110787
110787
110759
110730
110698
110664
110604
110563
110564
110561
110563
110488
110413
110417
110403
110370
110314
110260
110223
110184
110138
110114
110071
110045
109998
109920
109942
109908
109828
109805
109810
109780
109712
109705
109683
109684
109675
109687
109681
109667
109610
109566
109579
109553
109329
109331
109438
109504
109581
109636
109658
109723
109890
109990
110045
110029
109957
110045
110162
110173
110257
110211
110112
109964
109799
109629
109342
108384
106021
101698
95143
86310.1
73642.6
54754
35119.6
21898.7
13937.5
8733.53
6153.87
3940.17
2689.64
2571.41
2784.75
3847.07
5611.95
5602.86
7077.91
4668.46
2434.94
2792.81
1529.91
858.248
1311.54
2110.05
3748.48
6037.77
8877.42
9529.81
11307.8
20294.8
36007.2
55204.7
72446.9
85980.4
95664.6
101820
105610
107830
109078
109762
110143
110244
110202
110220
110298
110341
110343
110327
110276
110251
110275
110278
110238
110108
109859
109896
109983
109890
109300
108087
105737
101571
95039.9
85563.9
72726.8
54717.3
34596.6
19851.1
12227
14387.7
21922.5
34037.7
54698.5
74137
86101.6
94814
101662
106109
108423
109264
109494
109694
109926
110064
110154
110212
110231
110217
110181
110125
110017
109911
109881
109845
109806
109762
109736
109731
109768
109615
109453
109312
109173
109078
109162
109308
109439
109519
109584
109594
109658
109807
109951
110026
110071
110119
110208
110253
110301
110276
110210
110083
109940
109933
109870
109350
108150
105696
101453
95107.5
86396.5
73739.3
54958.8
35834.4
23324.9
13863.8
8924.27
7675.43
7262.7
4669.16
4661.77
2749.85
995.059
671.194
669.702
742.082
719.789
2024.34
3679.83
6041.29
8812.22
9109.22
11800.7
23584.5
37785.1
54922.5
71770.2
85931.2
95761.3
101912
105573
107745
108988
109695
110090
110314
110412
110419
110419
110432
110422
110392
110355
110281
110192
110198
110281
110216
110105
110005
109981
109953
109935
109913
109884
109880
109915
109961
109805
109654
109511
109508
109573
109591
109637
109759
109913
109986
109987
110023
110205
110250
110271
110250
110211
110160
110036
109702
109011
107756
105524
101762
95685.2
86359.5
73043.6
55163.2
36032.5
21926.9
13505
9540.31
10375.1
9340.73
6993.94
2364.94
2569.95
789.069
892.707
498.827
1322.52
1321.88
871.517
587.687
446.799
717.278
1978.24
2581.85
4649.22
9984.31
14828
22598.7
35777
54315.1
71603.5
85370
95467.6
101927
105645
107730
108931
109659
110098
110352
110488
110561
110464
110448
110483
110487
110430
110319
110276
110283
110380
110447
110473
110486
110499
110473
110422
110290
110041
109606
108888
107691
105611
101890
95423.2
85387.6
71692.2
54477
36504.1
22748.7
14337.3
9668.7
5333.15
4588.04
6225.65
12747.7
12928.3
14657.1
15031.6
23677.1
25095.6
24951.9
23628.3
38536.7
39113.3
37826.1
36370.7
53919.5
53952.2
54155.9
53917.7
69620.8
70006.6
70317.1
70835.8
84946.1
84614.6
84374.5
84031.2
94745.9
94942.8
95058.4
95227
101761
101666
101598
101489
105381
105444
105487
105531
107688
107681
107663
107628
108941
108954
108954
108938
109684
109705
109713
109711
110144
110124
110380
110395
110537
110520
110591
110610
110586
110495
110437
110463
109958
109916
109973
110005
110031
109981
109971
109897
109969
109896
109868
109948
110059
110075
110141
110185
110187
110160
110085
109951
109768
109567
109281
108391
106059
101618
94794.9
86087.8
74083.3
54691.6
34065
21800.9
14114.7
7244.78
7259.3
4039.59
3257.56
1874.34
1487.99
1322.24
1311.01
1440.43
1870.61
3237.34
4092.8
5970.86
8681.96
9342.18
11034.7
20350.3
36319.6
55271.9
72426.7
85946.7
95601.1
101768
105582
107778
108963
109585
109870
109864
109920
110019
110062
110061
110103
110075
110033
109973
110026
110081
110086
110099
110070
109972
109777
109614
109585
109164
108082
105756
101581
95039.9
85543.1
72649.1
54847.1
34978.7
19833.3
11664.8
11169.4
13457
8026.54
4902.16
3735.49
2070.64
1269.35
861.371
1575.95
2423.02
2821.35
2823.16
4825.15
6230.87
6340.65
2648.74
834.512
439.648
1314.62
644.54
686.449
994.849
1098.58
688.808
724.381
723.485
729.815
2013.37
3652.67
6035.8
8990.29
9355.8
11958.5
23703.6
37714.6
54848.4
71731.4
85843.1
95645.3
101783
105448
107603
108813
109490
109856
110038
110069
110064
110062
110047
110025
110069
110085
110066
109977
109774
109381
108697
107527
105461
101755
95310.7
85307.2
71670.7
54383.1
36269.6
22858.3
13904.9
10152.8
5388.49
2441.71
4654.61
10221.3
14554.5
22516.6
35597.5
54198.5
71529
85278.6
95355.6
101790
105474
107525
108691
109382
109776
109978
110053
110067
109994
110055
110115
110018
109795
109387
108675
107462
105348
101613
95109.7
84836.5
70738.6
53846.1
36295.9
23564.5
14965.2
12778.5
23722.4
37470
54148.6
70901.5
85104.3
95346.9
101753
105442
107587
108848
109574
109957
110134
110195
110193
110112
110016
109958
109949
109912
109854
109792
109734
109662
109576
109478
109380
109300
109212
109106
109024
108971
108965
108940
108901
108860
108806
108766
108795
108850
108912
108875
108942
109014
109090
109234
109351
109602
109769
109840
109926
110116
110193
110056
109945
109931
109976
110202
110239
110190
110225
110017
110057
110128
110040
110083
110276
110712
110890
110454
110274
110221
110782
110039
110437
110698
110387
110582
110748
110801
110813
111030
111701
110958
110859
111041
110949
110610
110499
110538
110546
110568
110585
110593
110572
110520
110437
110321
110195
110085
109988
109890
109793
109872
109980
110048
110091
110049
109983
109851
110010
110067
110013
110072
110089
110101
110143
110099
110076
109999
110105
110093
110187
110246
110243
110554
110603
110604
110550
110435
110218
109813
109074
107764
105432
101433
94657.7
84501.6
70613.4
55001.2
38414.6
23673.9
12255
110090
110105
110011
109792
109382
108664
107427
105268
101486
94915
84492.8
70203.7
53867.4
37782.7
25175.2
14778.4
15318.5
24453.7
37070.5
53835.9
70447.4
84673.9
95058.4
101629
105442
107643
108913
109625
109994
110158
110211
110208
110098
110053
110037
109985
109929
109865
109817
109778
109724
109647
109550
109472
109414
109335
109242
109185
109168
109127
109053
109001
108993
109002
108969
108868
108804
108788
108869
108972
109175
109236
109357
109443
109523
109598
109666
109731
109790
109844
109897
109945
109985
110005
110018
110076
110198
110217
110171
110021
109665
108990
107637
105355
100909
94478
83323.4
71453.7
54018.2
39597.4
23538
13418
35708.6
71157.3
109825
109075
107744
105368
101286
94410.8
84118.1
70141.3
54708.6
38574.9
23648.5
12208.1
13999.5
23093.4
35769.4
53468.2
69465.4
83233.2
94313.9
101582
105700
107904
109094
109742
110081
110246
110314
110331
110316
110253
110130
110088
110106
110125
110112
110067
110021
110008
109996
109969
110005
109910
109880
109852
109831
109838
109852
110038
110047
110230
110595
110683
111135
110942
111335
110860
111329
110782
110762
111210
110461
110485
110436
110412
110452
110505
110527
110559
110578
110591
110598
110574
110522
110443
110338
110226
110143
110151
110076
110065
110059
110036
109967
110049
110027
110059
110090
110118
110138
110142
110225
110296
110336
110396
110426
110388
110507
110402
110188
109774
109112
107913
106050
102297
96022.9
84921.9
72132.4
52900.7
38216.8
22812.6
12508.4
8513.27
6333.76
2682.58
2729.17
652.817
416.834
394.283
501.85
650.186
605.872
747.168
16077.1
26593.8
37610.2
53427.1
70095.9
84510.7
94908
101495
105379
107639
108929
109639
110003
110167
110223
110222
110188
110142
110092
110025
109951
109902
109871
109846
109791
109720
109653
109600
109546
109478
109402
109331
109303
109306
109236
109145
109032
108942
108964
108794
108860
108953
108900
108929
108983
109009
108970
108874
109010
109031
109021
108941
108921
109048
109063
109089
109114
109025
109048
109176
109153
109054
109093
109048
109232
109219
109145
109238
109200
109265
109215
109151
109262
109229
109251
109332
109495
109610
109678
109661
109680
109717
109752
109801
109854
109799
109710
109659
109601
109541
109487
109460
109490
109567
109548
109597
109660
109717
109766
109803
109920
109958
109873
109893
109927
109987
110033
110046
110022
110030
110129
110220
110271
110292
110283
110221
110062
109720
109062
107861
105696
101764
94797.9
83733.8
69231.5
53568.8
37367.4
22052.8
12266.8
12529.4
25463.3
39708.2
53447.3
69609.1
84300.3
94869.5
101487
105400
107680
108972
109672
110029
110192
110252
110257
110235
110187
110124
110031
109972
109975
109961
109925
109868
109809
109770
109798
109844
109888
109931
109963
109994
110038
110091
110138
110181
110222
110254
110254
110201
110045
109698
108998
107688
105309
101169
94221.1
83908.2
69931.9
54429.4
38567.6
24552.2
13028
37357.5
45247.3
37634.4
21748.5
21959.1
17367.4
13550.4
22596.5
22124.6
22280.2
37053
36722.8
54565.1
54591.9
36226.6
36183.6
54185.9
52055.6
79177.5
53391.1
35850.1
37171.4
46209.7
38732.7
50602.6
52425.9
53941.8
37900
46530.4
38232.5
21681.6
13355.4
16899.4
18814.6
18598.5
17958.9
9369.23
18290.1
9493.83
9537.82
9684.96
6454.79
5370.24
5194.66
8776.08
9472.35
15655.6
17833.1
13541.5
13888.4
15560.4
23517.9
23382.4
23797.3
37817.5
44405.4
36748.8
36460.9
54327.9
55550.5
70847.6
83482.6
93517.8
97879.7
93393
83263
70057.9
69876.8
54908.1
55036.8
70927.9
84102
93978.4
100968
103868
100899
94045.5
84131.6
70157
53474.7
36012.1
37303.2
23734.9
23681
13119.6
8940.18
7752.8
7744.24
4791.55
4446.59
8943.32
8348.62
3996.84
4553.49
4649.78
8488.53
8460.54
14133.2
14032
23356.6
23820.8
24035.3
13595.3
15058
7965.02
4434.22
4820.07
4542.38
6010.37
7866.32
7839.97
15497.9
14964.5
14125.9
13803.6
22833
23194.8
23810.9
13135.9
14416.8
20951.3
44488
20195.7
18263.1
19462.6
18381.2
20347.4
14513.2
17792.8
13148.5
13031.8
14276
13261
13736.6
13476.8
24602.5
24110.7
23860
24920.6
29687.3
38399.1
52688.1
70273.8
77118
69019
52929.3
37226.7
36590.5
24995.1
24595.2
37582.3
38342.1
38120.4
37788.7
54321
54319.6
70308.2
70217.2
83284.8
83869.8
83282
93744
101055
101608
105579
108011
109370
110089
110446
110568
110668
110723
110742
110729
110681
110621
110633
110656
110654
110632
110614
110561
110546
110517
110415
110395
110405
110416
110366
110279
110266
110185
110158
110173
110176
110169
110139
110040
109999
110069
110018
109930
109925
109977
109970
109966
109958
109874
109786
109770
109854
109890
109906
109903
109901
109893
109887
109867
109850
109819
109834
109822
109812
109804
109784
109831
109827
109832
109827
109792
109776
109763
109773
109828
109868
109841
109864
109883
109845
109814
109880
109801
109766
109759
109829
109870
109784
109842
109857
109942
109817
109879
109963
109956
109909
109876
109982
110030
110029
109987
110015
110045
110041
110140
110180
110201
110173
110185
110223
110272
110334
110434
110475
110447
110535
110565
110575
110609
110573
110639
110623
110672
110686
110669
110698
110748
110762
110744
110684
110647
110463
110082
109339
107943
105448
106174
106183
108318
109529
110164
110407
110587
110705
110761
110782
110778
110772
110756
110673
110645
110692
110667
110590
110537
110524
110514
110503
110488
110469
110474
110464
110433
110386
110330
110305
110290
110245
110205
110194
110183
110160
110069
110003
110053
110051
109985
109963
109938
109910
109849
109775
109802
109802
109863
109877
109837
109798
109712
109714
109753
109758
109747
109718
109768
109791
109785
109795
109755
109712
109713
109698
109727
109705
109743
109707
109765
109772
109752
109773
109783
109765
109782
109748
109710
109697
109767
109837
109826
109855
109874
109879
109869
109841
109888
109834
109898
109908
109870
109939
109965
109997
109982
110012
110043
110070
110044
110092
110101
110097
110089
110034
110027
109981
109978
109972
109958
109938
109916
109904
109886
109867
109858
109842
109821
109796
109786
109778
109762
109757
109745
109740
109715
109694
109699
109695
109669
109692
109660
109641
109590
109584
109610
109663
109698
109681
109619
109596
109669
109720
109739
109736
109748
109764
109783
109782
109752
109735
109774
109794
109812
109799
109794
109834
109850
109836
109767
109732
109766
109738
109800
109834
109866
109901
109926
109979
109992
110052
110030
110092
110129
110138
110046
109835
110004
109610
108889
107419
105189
100847
94767.7
84244.6
69924.5
109908
109231
107767
105431
100831
94392.2
83338.2
71511.4
54199.4
39576.7
24051.8
13202.3
9502.73
47487.6
46143.1
45049.4
38064.2
37083.4
54748.1
57751.3
57460.2
73223.7
87240
96836
102541
105943
108087
109410
110196
110642
110889
111025
111099
111144
111171
111187
111195
111204
111207
111210
111214
111213
111201
111188
111179
111168
111160
111142
111123
111108
111082
111058
111026
110996
110960
110925
110876
110829
110778
110725
110667
110610
110550
110472
110384
110290
110181
110078
109963
109885
109881
109733
109517
109675
109774
109955
110046
110188
110302
110401
110492
110545
110935
111008
111013
111042
111067
111072
111098
111117
111121
111140
111159
111170
111191
111202
111212
111220
111215
111209
111191
111196
111187
111186
111193
111177
111151
111102
111042
110926
110714
110329
109633
108397
106218
102421
96011.8
86293
73018.8
59823.4
56963.7
72520.1
79963
72867.2
73094
73760.8
73011.7
74942.7
86791.4
95631.6
101956
106002
108376
109687
110387
110754
110946
111051
111111
111144
111171
111184
111198
111209
111213
111211
111208
111202
111184
111178
111181
111174
111163
111146
111131
111115
111091
111067
111037
111008
110975
110943
110903
110862
110817
110772
110721
110670
110616
110550
110477
110399
110311
110222
110136
110068
110089
110287
110250
110367
110395
110447
110517
110484
110532
110492
110509
110577
110572
110627
110683
110739
110779
110830
110820
110859
110892
110924
110953
110982
111009
111029
111051
111069
111090
111107
111125
111139
111152
111166
111174
111185
111186
111192
111195
111198
111188
111184
111160
111138
111164
111173
111169
111150
111130
111116
111090
111035
110925
110720
110337
109638
108398
106257
102609
96409.6
86619.5
72239.3
58949
58150.4
74164.1
87176.2
96332.1
102225
105862
108088
109413
110185
110623
110866
111001
111073
111114
111144
111170
111180
111182
111151
111156
111180
111192
111192
111190
111186
111175
111166
111151
111138
111124
111105
111084
111060
111035
111012
110986
110957
110925
110891
110856
110817
110776
110733
110681
110624
110563
110500
110437
110392
110283
110345
110419
110496
110561
110625
110681
110727
110773
110817
110857
110895
110931
110965
110993
111022
111048
111076
111098
111120
111135
111150
111165
111175
111184
111182
111181
111188
111190
111194
111194
111201
111194
111175
111161
111135
111138
111101
111038
110932
110739
110372
109671
108343
105909
101734
95251.7
86695.5
75868.3
57978.6
36691.8
39510.5
58007.4
56725.5
39219.5
39590.2
37964.3
45013.8
37269.2
37053.9
54798.2
56526.3
57177.4
57224.8
54571.6
54582.4
72688
73323.4
73086.5
72710.8
79967
72397.8
54454.9
72298.8
72327.3
71662.2
85212.7
85742.4
85485.9
71563.8
54297.5
36542.2
35687.3
37394.3
37401.6
36448.9
54703.8
54141.6
71575.3
71694.7
84736.3
85255.9
84885.1
70938.1
54354.3
35796.2
35310.2
36498.8
35715.7
53102.7
53730.5
53436.9
71284.1
70811.8
71210.3
72964.6
72313.4
86419.9
95331.5
101509
105584
108059
109467
110232
110631
110831
110934
110980
110995
111005
111000
110944
110936
110948
110996
110994
110971
110920
110923
110966
110968
110964
110949
110924
110896
110886
110869
110853
110837
110822
110784
110757
110745
110710
110686
110664
110596
110538
110489
110441
110368
110305
110270
110215
110120
110016
110028
110018
109985
109940
109892
109839
109823
109792
109772
109737
109707
109673
109642
109608
109585
109561
109545
109497
109747
109829
109913
109994
110011
110051
110135
110156
110263
110145
109424
106775
98186.6
77492.1
46211.3
15260.4
14831.9
15105
24145.4
23807.9
38415.4
37918.9
38050
24643
25131.9
25134.1
25554.3
25061.5
36958.7
39340.1
42901.9
46119.5
48200.1
55320.8
70727.8
76852.5
68314.2
53735.5
38439.8
37842.3
38718.5
40273.8
54354.7
53804.8
53220.9
68988.7
69017
68920.4
82822.4
82953.7
83070.2
83738.2
89716.5
94560.9
101111
105383
107068
105321
101021
93771.3
93636
94023.3
85084.1
83925.4
93392.6
100514
103538
100527
93514.8
83418.4
69557
53769.2
55070.2
69348.2
82962.3
93621.6
101095
101497
105521
105531
106062
108194
109420
110063
110294
110489
110610
110666
110653
110614
110624
110625
110562
110489
110460
110491
110520
110496
110477
110454
110416
110384
110361
110343
110317
110278
110154
110123
110158
110173
110154
110109
110084
110072
110063
110010
109977
109932
109943
109964
109995
109992
109986
109973
109962
109958
109953
109938
109920
109923
109939
109936
109929
109911
109854
109852
109915
109910
13994.3
25902.2
39381.8
54454.4
70648.2
84448.2
94709.4
101432
105449
107764
109062
109768
110133
110312
110392
110419
110398
110319
110214
110237
110261
110262
110249
110278
110222
110197
110205
110204
110187
110163
110142
110120
110091
110038
109992
110099
110188
110215
110367
110488
110563
110384
110311
110358
110292
110320
110399
110422
110473
110491
110535
110571
110582
110597
110603
110574
110521
110442
110354
110249
110289
110237
110098
110071
110028
110063
110077
110087
110112
110100
110016
109983
110076
110073
110115
110151
110181
110196
110191
110226
110318
110378
110370
110417
110462
110547
110638
110641
110609
110524
110333
109917
109217
107738
105506
100797
94574.3
82826.3
72186.9
53690.3
40452.7
22746
13694.1
6688.14
5765.47
3123.41
875.875
18374.3
18494.4
18283.8
6529.08
6353.55
5995.31
18174.3
17958.4
14047.2
14933.6
14081
17551
21880.6
21757.1
22121.7
38109.3
36302.2
35316.5
35954.4
35724.3
54448.7
54691.7
53996.2
72742.2
85902.8
95158
101470
105551
108036
109450
110216
110613
110812
110909
110956
110971
110975
110978
110931
110915
110933
110960
110954
110882
110863
110886
110921
110926
110920
110904
110869
110846
110822
110805
110786
110748
110737
110724
110684
110659
110632
110543
110552
110502
110462
110433
110384
110329
110281
110250
110211
110146
110038
110021
110048
110090
110158
110213
110221
110220
110226
110228
110251
110256
110264
110272
110275
110312
110334
110351
110356
110365
110418
110382
110257
109956
109315
107998
105696
101226
94888.6
83715.1
70703.1
52973.3
38896.1
36854.9
38378.4
37756.6
38625.4
40053.7
38260.6
37173.5
52856.2
52568.7
54205.6
53664.1
53097.6
53624.2
55252.6
48142.1
46082.2
39281.6
42956.4
32576.3
32549
43173.9
43173.6
58753.6
56701.2
57956.1
68914.6
70609.2
68189
68859.9
68875.7
68827.1
70167.9
68883.2
69419.7
69278.3
70754.8
69946.3
69780.3
70845.5
70059
69922.9
70219.1
71979.7
72730.8
71644.9
71774.2
71367.9
71387.7
71992.8
72667.7
73823.7
72159
71449.9
70039
71267.8
71935.5
72124.5
71448.9
71701.9
72046
71381.5
85394.5
94622.9
94402.9
85142.8
84870.1
84955.1
85297.3
85387.2
85533.6
85539.9
78663.8
87255
86243.9
85789.5
85766.1
85643
84908.2
84606.6
85141.8
84925.7
85180.1
85533.2
85538.4
77668.4
85198.5
84002.6
83995.9
83191.2
83143.1
83380.4
82855.5
83303.7
83787.1
76972.5
84971.8
82698.6
82836.6
82950.7
83656
76725.8
85176.2
83241.5
83252.3
68301
71525.3
71529.8
58773.7
56756.6
57996.9
68977.9
68351.5
83292.7
83823.7
83815.8
94349.6
94958.7
94504
95209.3
95380.7
94468.4
93670
93520.7
93924.9
93283.1
93408
93501
93407.9
93268.6
93618
93852.1
93901.3
94342.2
94329.5
94769.8
94647.6
94644.4
94743.6
94375.9
94631.4
94973.7
94954.7
94794.4
95110
95168.9
94708.5
94822.3
94554
94695.5
94719.5
94087.7
98415.8
101939
101307
101238
100938
105294
103477
105899
105386
105208
105413
105228
101118
100884
101184
101179
101132
101228
101016
101197
101212
101131
101024
101197
101198
101087
101145
100837
100902
100726
100810
100894
101456
97746.9
101374
100960
100412
100395
100480
100970
100923
101016
101191
101789
101873
102133
101564
101582
94355.8
94993.4
94561.1
83308
85249.1
95264.3
95438.2
101259
101837
101914
102157
105961
105834
105821
105930
105977
105688
105190
105279
105214
105403
104954
105649
105915
105367
105356
105388
105243
105971
105957
105223
105075
105243
105194
105272
105257
105207
105229
105187
105211
105071
105237
105124
105373
106071
105688
103741
105543
105368
101347
94847.3
85133.9
71185.8
14133.1
25027.2
24687.2
24703.4
24726.3
18730.8
38843.5
38842.5
37821
38938.7
39077.8
38403.1
38908.1
38652.2
53911.8
53497.2
53620.6
54226.4
54605.7
52747.3
52213.5
70309.2
70215.4
69708.6
69636.3
83575.7
83560.4
83138.1
76831.8
83220.9
95012
94823.3
94236
94029.8
101086
101492
101225
101307
94005.3
94000.9
101192
101683
101831
99273.1
95027.8
83274.4
70203.1
52595.1
37820
37062.5
38262.6
37472.6
36445.7
53091.1
53227.2
53683.8
70209.9
70010.9
70516
72248.5
72849.3
85322.1
94811.2
101295
105455
107951
109371
110143
110545
110743
110834
110867
110877
110856
110801
110768
110767
110822
110815
110789
110733
110647
110688
110713
110702
110698
110662
110627
110610
110611
110589
110560
110542
110497
110435
110377
110361
110363
110274
110223
110193
110158
110128
110124
110062
110032
109966
109911
109946
109952
109924
109894
109864
109890
109909
109924
109933
109961
110023
110028
110056
110098
110154
110181
110212
110233
110226
110133
109876
109313
108079
106020
101444
95219.2
82765.9
70994.8
45129
45364
45502.8
37762.1
38388.9
45698.9
52416.9
52521.1
50764.1
77471.1
51939.7
37242.3
37945.8
44981.3
38584
49587.7
51052.7
52901.9
53770.8
70046
69327.9
83506.7
84002.6
83967.5
69506.8
70543.9
78111.1
70972.4
69614.1
83412.8
82858.4
83607.1
94839.7
94084.8
93828.8
94255.1
101160
101075
100571
105073
105517
108002
108408
109472
109868
110191
110412
110518
110536
110568
110553
110519
110527
110511
110498
110481
110461
110445
110428
110399
110370
110330
110316
110301
110289
110270
110245
110223
110209
110197
110154
110138
110168
110165