/*--------------------------------*- C++ -*----------------------------------*\
  =========                 |
  \\      /  F ield         | OpenFOAM: The Open Source CFD Toolbox
   \\    /   O peration     | Website:  https://openfoam.org
    \\  /    A nd           | Version:  7
     \\/     M anipulation  |
\*---------------------------------------------------------------------------*/
FoamFile
{
    version     2.0;
    format      ascii;
    class       surfaceScalarField;
    location    "19";
    object      phi;
}
// * * * * * * * * * * * * * * * * * * * * * * * * * * * * * * * * * * * * * //

dimensions      [0 3 -1 0 0 0 0];

internalField   nonuniform List<scalar> 
44249
(
-0.00270664
0.000779175
-0.000958633
-0.000102977
-0.00024677
-0.0034298
0.000680001
-0.000866186
8.02915e-06
0.000900818
-0.00295818
0.000636643
-0.000845972
2.76335e-05
-0.000289458
-0.00376482
0.000571093
-0.000798795
0.000150654
0.000882998
-0.0031713
0.000547917
-0.000763744
0.000166908
-0.000544275
-0.00395199
0.0004981
-0.000694652
0.000222426
0.000754506
-0.00320669
0.000470527
-0.000648662
0.000208781
-0.000775325
-0.00379948
0.000401494
-0.00055319
0.000320342
0.000423528
-0.00295246
0.000345731
-0.000486029
0.000466116
-0.00117247
-0.00346838
0.000273936
-0.000368034
0.000808757
-0.000199072
-0.00222355
0.000216075
-0.000341817
0.00140481
-0.00252335
-0.00204751
0.000178384
-0.000192595
0.00148143
-0.00164399
-0.00140195
0.000259311
-0.00030423
0.00118041
-0.0017808
-0.0016838
0.000127579
-6.17786e-05
0.00105507
-0.000839618
-0.00180677
0.000103049
2.5551e-05
0.000275663
-0.000281085
0.000632072
-0.000869585
0.000753083
-0.000327263
0.00156504
-9.59418e-07
-0.000125967
-0.000548747
0.00179662
0.000386038
-2.54628e-05
-0.000591955
0.00150666
0.00029195
0.000178134
-0.000180234
-0.000790539
0.000843468
0.000657219
0.000796522
-0.000910833
0.000289751
0.000122699
-0.000436121
-1.36343e-05
-7.52303e-05
0.000122131
-0.00132429
0.000146634
0.000618958
-0.00028993
-0.00123703
0.000797011
0.00085213
-0.000930467
-0.000123019
0.000494228
0.000269552
-0.000398185
-9.81111e-05
4.53073e-05
-9.40196e-05
0.000258638
0.000152649
5.51106e-05
0.000413999
0.000362628
0.000117344
-0.00167205
0.000928889
0.000680669
-0.000187286
-0.000774934
0.00066249
0.000417915
0.0002917
0.000286243
0.000528579
0.000923099
0.000221029
8.32433e-05
0.000640882
-0.000718434
0.000633975
0.00036686
0.000620589
-0.00151645
0.000782963
0.000754288
0.000148759
0.000380608
-0.00260767
-4.15709e-05
-0.000702476
-0.00328457
6.04057e-05
0.000507622
-0.00277882
6.03701e-05
-0.000637832
-0.00354802
0.000175282
0.000537196
-0.0029546
0.000174024
-0.000823031
-0.00372032
0.00022331
0.000479389
-0.00301129
0.000182454
-0.000984446
-0.00362207
0.000262717
0.000232657
-0.00280245
0.000352073
-0.00129048
-0.00332391
0.000687102
-0.000302475
-0.0021582
0.00128609
-0.00262725
-0.00203347
0.00141302
-0.00172001
-0.00130092
0.00103975
-0.00191587
-0.00147828
0.000736542
-0.000866873
-0.0015937
-9.53256e-05
-0.000257767
0.00044132
-0.000547796
0.00145375
-0.0017059
-0.000526358
0.000494814
0.000721433
0.000585219
0.00110882
-0.000878904
-0.000454875
0.00155368
-0.000136094
-0.000434285
0.00170145
0.000105752
-0.000279036
0.00196432
0.000141966
-0.000226504
0.00172114
0.000309033
0.000314607
-0.000380247
-0.000962419
0.00110423
0.000676409
0.000902846
0.000224317
-3.41751e-05
0.00121849
-0.000159629
-0.000177051
0.00142962
0.00015694
-0.000211339
-0.000156701
0.00166335
0.000161766
-0.000298991
-9.64565e-05
0.00193833
0.000184064
-0.000318782
-0.00014025
0.00210438
0.000301929
-0.000340172
-0.000127721
0.00216481
0.000291891
-0.000319866
-3.23666e-05
0.0020466
0.000303059
-0.000249101
6.43357e-05
0.00184623
0.000164154
-0.000119486
0.000155771
0.0016111
-5.2576e-05
1.22731e-06
0.000286656
0.000942775
5.56159e-05
0.000300211
0.000312497
0.00213135
0.00102989
-0.00111052
-0.00110776
0.00248754
-0.000540417
-0.000275576
0.000460118
0.00190842
-0.00045004
0.000622415
0.000406797
0.00141772
-0.000411824
0.000440452
0.00046227
0.000667493
0.000313266
0.000296899
0.00014006
0.00162294
0.000605472
-0.000636245
-0.000924383
0.00134489
-0.000709302
0.000674801
0.00031275
0.000891698
-0.000408459
0.00048762
0.000374084
0.00134284
-0.000633902
0.000911231
-0.000728419
0.00139303
-0.000696919
0.000205025
0.000441984
0.000863927
-0.000439687
0.000636426
0.000332462
0.00126373
-0.000615186
0.000910794
-0.000695282
0.0012688
-0.000636862
0.000201222
0.000430885
0.000772593
-0.000358999
0.000567219
0.000288177
0.00124066
-0.000538219
0.000641302
-0.000570904
0.000819964
-0.000556922
0.000685854
0.00029178
0.00132636
-0.000708294
0.000792856
-0.000590759
0.000967512
-0.00070999
0.000727036
0.000341771
0.00154654
-0.000776767
0.000856885
-0.000659002
0.00108924
-0.000779496
0.000801163
0.000435612
0.00166794
-0.00084008
0.000938528
-0.000677041
0.00117196
-0.000850047
0.000871041
0.000474929
0.00180625
-0.000925488
0.00100903
-0.00071775
0.00125754
-0.000929039
0.000928815
0.000548826
0.00186187
-0.000970202
0.00107522
-0.000709141
0.00117645
-0.000945247
0.00111184
0.000518725
0.00182947
-0.00113847
0.00116175
-0.000676029
0.00071451
0.00111316
0.000387377
-0.000385734
0.00118547
0.00129827
-0.00047763
-0.00129114
0.00189657
-0.00208281
0.00245706
-0.00108554
0.00181852
-0.00152877
0.000738812
0.000867971
0.00209519
-0.00191367
0.00260974
-0.000972141
0.000703882
0.00213853
0.000293958
-0.00104134
0.000533399
0.00242644
-0.000444203
-0.0018112
0.00115598
-0.0033401
0.00360086
-0.000883042
0.000857764
-0.00223313
0.00208705
0.000444109
0.000846414
-0.00197019
0.00243732
-0.000455047
0.000445757
0.000877739
-0.000627357
0.000150343
0.000150261
0.00106349
-0.000124345
-0.000643338
0.0011679
-1.008e-05
-0.00100803
0.00203632
-0.000441852
-0.000180727
-0.000246323
0.00258594
-0.000115471
-0.00024831
-0.000185757
0.00308904
-0.000634367
-0.000213048
0.000344437
0.00303817
-0.000704792
-0.00095553
0.00171156
0.00250538
-0.00215763
-0.00147436
0.0041651
0.001268
0.000610139
0.000626494
0.000826468
-0.00205207
-0.000403853
-0.00214941
-0.00472835
0.00304371
-0.00254488
-0.000782796
-0.000988589
-0.000115058
-0.00314364
0.000462354
-0.000868646
-5.4538e-05
-0.00256563
-0.000765612
-0.000781412
2.44352e-05
-0.00323994
0.000433591
-0.000680233
0.000119215
-0.00275181
-0.000682889
-0.00063974
0.000103126
-0.00352566
0.000485929
-0.0005737
0.000207086
-0.00294733
-0.000850767
0.000629432
-0.000552391
0.000195751
-0.0037216
0.000452717
0.000584485
-0.000502814
0.000239725
-0.00301885
-0.00100036
0.000583898
-0.000477495
0.000191907
-0.00363362
0.000220459
0.00053861
-0.000412946
0.000268185
-0.00281055
-0.00129767
0.000486394
-0.000361508
0.000350161
-0.00333014
-0.000300057
0.000434043
-0.000293294
0.000678691
-0.00216069
-0.00261737
0.000411104
-0.000235042
0.00127248
-0.00203441
-0.00170694
0.000376257
-0.000194801
0.00139863
-0.00130311
-0.0019035
0.000405254
-0.000262911
0.00103018
-0.00148663
-0.000121481
-0.000853107
0.000429331
0.000728333
-0.00161597
-0.000246367
-8.94265e-05
0.000564735
-9.90166e-05
0.00109647
-0.00053069
-0.000624927
0.000457431
0.000846477
-0.00128666
-0.000551695
0.000650176
0.000966151
-0.000562012
-0.000207909
-0.000338365
0.000211196
0.000368036
0.000409053
0.000611698
0.000510708
0.000718241
-0.00026352
0.00114429
-0.000114832
-0.000447268
0.00152126
1.90207e-05
-0.000290195
0.00169082
0.000203751
-0.000231147
0.00206599
0.000386225
-0.000446598
0.00224229
0.000104782
0.000369047
-0.000650156
0.00252002
-0.00012211
0.000396689
-0.0005522
0.00216687
-0.000230385
0.000859396
-0.000275713
-0.00156223
0.00131461
0.000929426
0.00148528
-0.00182509
0.000173986
-0.000141288
-0.00156514
-6.34314e-05
-0.000318542
-3.15994e-05
-0.000324179
0.000979783
-0.00017772
0.00122492
-0.000146585
0.00179069
-0.000207499
0.00186536
-0.000165983
0.000393288
0.00202333
9.66154e-05
3.75104e-05
0.00156157
0.000155403
0.000609546
0.00137506
0.000192593
0.00015822
0.00101949
8.35184e-05
0.0002196
0.002345
-0.00125484
-0.00124213
0.00117153
0.00268012
-0.000441271
-0.000310488
0.000416944
0.00210494
-0.000331862
0.000367039
0.0016295
-0.000383973
0.000409425
0.00109937
-0.000318978
0.000437516
0.00163759
-0.000650944
-0.000892094
0.0010049
0.00174322
-0.000718376
9.88318e-05
0.000514372
0.00117662
-0.000529449
0.000387165
0.000525561
0.000239255
3.31502e-06
0.00119577
-0.000499772
-0.000804104
0.000967954
-0.000669783
0.000200858
0.00066459
-0.000361754
0.000225627
0.00114861
-0.000552001
-0.000546937
0.000930452
-0.000630091
0.000211825
0.000441899
0.000180081
-5.04077e-05
0.00104541
-0.000437289
-0.000704135
0.000478172
0.000155133
-0.000144752
0.00111494
-0.000490935
-0.000853779
0.000811925
-0.000621744
0.0002147
0.00132079
-0.000684982
-0.000600484
0.000879175
-0.000653057
0.000315058
0.00140019
-0.000753683
-0.00060724
0.000929746
-0.000718718
0.000338985
0.00146759
-0.000831249
-0.000631914
0.000959957
-0.000800994
0.000379455
0.00153504
-0.000960115
-0.000584879
0.000619064
0.000294636
-0.00032402
0.00104546
-0.000451494
-0.00111285
0.00162102
-0.0017447
-0.000945507
0.00211445
0.00151164
-0.00123332
0.000618009
0.000724671
0.00180599
-0.00148559
-0.000891036
0.00071259
0.00028028
-0.000715706
0.000801743
-0.000480641
-0.00152151
0.0014084
-0.00275703
-0.000964911
0.00311563
0.00136708
-0.00206243
0.000576919
0.00152694
0.00113753
-0.00237079
-0.000739016
0.000290423
-0.000103228
-0.00128271
-0.000144543
-0.000246405
-0.00128818
0.000228397
-0.00242239
-0.000264122
0.00231467
0.00113432
-0.000881075
-2.61479e-05
0.00254455
-0.00154312
-0.00130855
0.00144161
0.00339922
-0.00100583
-0.000269976
0.00042171
0.00460783
-0.000889955
-0.000760691
0.00582126
-0.000317895
-0.0010102
0.00574788
0.000362277
-0.0009224
0.00390551
-0.0048236
0.00288346
0.00378169
0.00685925
-0.000151028
-0.00104845
-0.00175433
0.00969275
-0.00337003
-0.0031391
0.00367569
0.0074543
0.00422127
-0.00797543
0.00599206
-0.0115334
-0.00243505
0.00169299
0.000704258
-0.00154015
-0.000640607
-0.000586493
-0.00151495
-0.0019523
0.000781759
-0.00182675
-0.000392673
-0.000469762
-0.00172988
0.00132485
-0.0019244
-0.00811368
0.00579315
-9.52968e-05
-0.00756679
-0.00176793
-0.00869959
-0.00635062
-0.000547054
0.00462431
0.0028572
-0.00631945
-0.00551771
0.0040289
-0.00103673
0.000147467
-0.00721013
-0.00457113
-0.000794091
0.00326007
0.00299373
-0.00611418
-0.00369538
0.00302586
-0.000839198
0.00041468
-0.00786809
-0.00260264
-0.000302372
0.00237898
0.00227788
-0.0064752
-0.00183015
0.00208713
0.00073829
-0.00238597
-0.0082025
-0.00089012
0.00189012
0.00158639
-0.000861037
-0.00476192
-0.000420149
0.00124882
0.00718779
-0.0114547
-0.00805501
0.00028803
0.00362831
0.00162026
-0.00224558
-0.011204
-9.73251e-05
0.00186793
0.00279425
-0.00141284
0.01526
-0.000485276
0.00164316
-0.0196209
0.000929522
0.00121049
-0.00110128
-0.000129121
-0.000315055
0.00028101
0.000320545
0.000643352
0.00115383
0.000383502
0.000517946
-0.000911735
0.00072726
-0.000126261
-0.000645
0.00122335
0.000411566
-0.000129563
-0.00077836
0.00173667
0.000167125
-2.75543e-05
-0.000652928
0.00143993
-0.000148136
0.000487256
-4.22395e-05
-0.00103802
0.00105055
0.00054272
0.000884719
-0.00114169
4.17422e-05
-8.61288e-05
-0.000711834
6.75204e-05
-0.000330179
0.000146675
-0.000235759
0.000739204
-0.000339063
0.00109444
-0.000268447
0.00130881
3.15895e-05
0.00150101
0.00039007
-0.000196027
0.00183862
0.00035008
-0.000318368
0.00215706
0.000380076
-0.000301835
0.00263958
0.000523685
-0.000146475
0.00252719
0.000411645
-0.00019104
-0.000108144
0.0026783
0.000308969
8.37955e-05
-0.000543625
0.00228914
0.000107944
0.000259044
2.22279e-05
0.00209709
0.000138222
-0.000147381
0.000201303
0.00188709
2.0081e-05
-6.32358e-05
0.000253195
0.00166745
-0.000226593
0.000172951
0.000273485
0.00107747
0.00021855
0.000237716
0.000133758
0.000671595
0.000319199
-8.00844e-05
0.00016671
0.00149636
-0.0010387
-0.000798732
0.00101283
0.0016711
-0.000692648
0.000160815
0.000357402
0.00110609
-0.000450886
0.000728486
0.000287598
0.000499367
0.000412319
0.000199025
-4.60503e-06
0.001114
0.000653202
-0.00048271
-0.00078485
0.000872845
-0.000648051
0.000700812
0.000188738
0.000352555
0.000473654
0.000152889
-0.000106261
0.000774941
-0.000452698
-0.000705953
0.000736447
0.000874003
-0.000621572
0.000320503
0.000202334
0.000346933
0.0005206
0.000105081
-9.85564e-05
0.000791369
0.000652093
-0.000420281
-0.000675971
0.000636597
-0.000562205
0.000616427
0.000100582
0.00107051
-0.000642439
0.000765382
-0.000556619
0.000694928
-0.000625047
0.000781878
0.000218781
0.00103084
-0.000741496
-0.000629306
0.00103494
0.000956917
-0.000649615
0.000337479
0.000386167
0.0011614
-0.000796277
0.00136954
-0.000777794
0.00102383
-0.000711076
0.000412602
0.000436144
0.00121111
-0.000865414
-0.000809473
0.00148758
0.00104975
-0.000769375
0.000457104
0.000473698
0.00120976
-0.000905479
-0.000787066
0.0015325
0.00111139
-0.000800001
0.000414181
0.000484184
0.00136487
-0.00100289
0.00146409
-0.00071437
0.000537609
0.00101895
0.000201653
-0.000393529
0.000736028
0.00120926
-0.000402961
-0.00100427
0.00121516
-0.00165121
-0.000867557
0.00203932
0.0011831
-0.00122009
0.00047025
0.00078189
0.00130437
-0.00142622
0.00210205
-0.000796594
0.00046182
0.00155642
7.71044e-05
-0.000791007
0.000142944
0.0018959
-0.000367417
-0.00120917
0.000763404
-0.00249449
-0.000766024
0.0026406
0.000567415
0.00147517
1.86399e-05
-0.00129769
-0.000717624
0.00292012
-0.000297111
-0.00133746
-0.00080303
-0.00264945
-0.000159075
0.00289481
-0.000330987
-0.00295085
-4.30102e-05
0.00252327
-0.00034729
0.00175149
-0.00171148
-2.48365e-05
0.00163465
-0.00177358
-0.000417864
0.000208956
0.00348177
0.00117963
-0.00127424
0.00368016
-0.00195598
0.000549686
0.00120867
0.00370446
0.000706759
-2.49878e-05
-0.000705818
0.00317847
-0.0010404
0.00144873
0.000117106
0.00382146
-0.000987824
0.000611832
-0.00026706
0.00598414
-0.00191254
-0.000534648
0.000284617
0.00912508
0.000501452
-0.00221264
-0.00142966
0.0123576
0.000130933
-0.00351465
0.00796387
-0.00903483
0.00690644
0.0065214
0.0221331
-0.00644665
-0.0049769
-0.00274752
-0.0200317
-0.00609181
-0.0126892
-0.0246546
-0.00580691
-0.00824908
-0.0126877
-0.00316428
-0.00632285
-0.0081612
-0.00170209
-0.00566825
-0.00554237
-0.00114123
-0.00437632
-0.00407457
-0.000861469
-0.00375068
-0.00387185
-0.00048982
-0.00295494
-0.00339884
-0.000828692
-0.000862428
-0.00172464
-0.000629488
0.00136907
-0.00158004
-0.00102984
0.000378224
-0.00113978
0.000352966
0.000681736
-0.00125398
-0.000363826
-0.000203939
0.00141357
-0.00142983
-0.00156017
0.00203543
-0.00153298
-0.000786753
-0.00121603
-0.000478977
0.00085166
-0.00143876
-0.000552145
-7.73901e-05
0.00153712
0.00140535
-0.000737849
-0.00135271
-0.00105068
0.000463581
0.00180721
-0.00106952
-0.00038273
0.000635521
-0.0011025
-0.000473543
0.00274694
0.00352559
-0.00170702
7.39827e-07
-0.00118423
0.00268668
-0.000417734
0.000738883
0.000516417
0.00146023
-0.00125968
-0.00205734
-0.00310096
-0.00167819
0.00264004
-0.000690331
0.00126766
-0.00233117
-0.00149299
-0.000534959
0.00112236
0.000135421
-0.00283066
-0.0013028
-0.000456186
0.000973381
0.00128427
-0.00216447
-0.00118339
-0.000381231
0.000866663
3.18597e-05
-0.00246734
-0.00104581
-0.00034928
0.000650482
0.00104684
-0.000961289
-0.000507313
-0.00105238
-0.00775295
-0.000978877
-0.00059887
8.07911e-05
-0.000128976
0.0020438
-0.000376493
0.0024261
0.00214219
0.000720615
-9.50555e-05
-4.53791e-06
0.00122472
0.00135158
-0.00199627
0.000174785
-0.000593234
-0.000430432
0.00188332
-0.000506318
0.00238828
0.00204153
0.00175494
0.000160085
-0.000162236
-0.000861888
-0.00719011
-0.000664174
0.000344045
0.00196515
0.000269547
-0.00133794
-0.000196745
-0.00269657
0.00234871
-0.000464966
3.96073e-05
0.000266494
-0.0025175
-0.000126244
-0.000244356
0.000220088
-2.8308e-05
-0.00282278
-0.000250389
-5.40942e-05
8.31609e-05
0.000526069
-0.00259436
9.70986e-05
-0.00027231
1.83528e-05
-7.10503e-05
-0.0028309
-9.84574e-05
-1.70146e-05
-0.000104237
0.000455799
-0.00254429
0.000275581
-0.000494636
-0.00016537
9.83446e-05
-0.00279348
6.80209e-05
0.000206229
-0.000244773
0.000219189
-0.00250962
0.000313248
-0.000680488
-0.000196296
0.000280073
-0.00271991
-1.42536e-05
0.000117664
-0.000175316
0.000281576
-0.00213534
0.000260173
-0.000962365
-0.000161273
0.000279253
-0.00216801
0.000128907
0.000104679
-0.000122877
-7.8682e-05
-0.00171662
0.000429307
-0.000895799
-0.00025389
0.000269434
-0.00131992
-0.00041957
0.000397579
-2.13974e-05
-0.000354
-0.000579596
-0.00144937
0.000839794
-0.000414856
0.000284171
-0.000432241
-0.000168906
-0.000210557
0.000370511
-0.000138648
0.00117461
-0.000978046
-0.000346761
-0.000555558
0.000273931
0.000566071
0.00206263
-0.00100216
-0.000451093
0.00118212
0.000206403
-0.000837486
1.49707e-05
0.00124871
0.000782244
0.00121349
0.00182619
-0.000158145
-0.000133069
-0.000285894
0.00122126
0.000699196
-0.000151358
5.7102e-05
0.00105027
0.000525159
-0.000209639
-0.000144532
0.00104997
1.6897e-05
7.86808e-05
-9.53627e-05
0.000931064
-0.000140559
0.000187673
7.17585e-05
0.000893097
-6.29079e-05
5.06239e-05
5.01426e-05
0.000991229
6.79622e-05
-7.47338e-05
-9.14053e-05
0.00119139
5.88798e-05
-9.79219e-05
-0.000161248
0.00130576
-6.90949e-05
2.02714e-05
-6.56013e-05
0.00122148
-0.000228648
0.000169405
0.00014341
0.000988805
-0.000251923
0.000237141
0.000247466
0.000765774
-0.000162532
0.000175049
0.000210498
0.000704722
-3.31837e-05
2.99977e-05
6.43181e-05
0.000772862
5.59428e-05
-9.31026e-05
-3.099e-05
0.000886922
0.000108031
-0.000157445
-6.46167e-05
0.00099112
0.000103866
-0.000163059
-4.50674e-05
0.00105653
5.96568e-05
-0.000129964
4.82451e-06
0.000886375
0.000147692
-6.57725e-05
8.78214e-05
0.000995222
0.00171001
-0.000772288
-0.00104651
0.00138271
0.000205852
-0.000484741
-0.000108321
0.00135897
0.000180403
-0.000246686
8.9962e-05
0.00128454
0.000159329
-0.000221567
0.00013659
0.00118256
0.00016616
-0.000227715
0.000163462
0.00106446
0.000178419
-0.000245445
0.000185049
0.000802453
0.000226104
-0.000171009
0.000206482
0.00117237
0.00164681
-0.00093139
-0.00108531
0.00165805
-0.00107574
0.000449943
0.000140409
0.00162881
0.000188815
0.000396975
-0.000556862
0.00158336
0.000308265
-0.000610114
0.000346977
0.00121667
0.000414574
-0.000440406
0.000392103
0.00184918
-0.00193383
-0.00172612
0.00266498
-0.00318099
-4.03655e-05
-0.00328035
0.00047323
0.000188581
0.000705054
0.000752806
0.00153066
-0.000603754
-0.00011005
0.00141418
0.000437263
-0.000580637
0.000259416
0.00119793
0.000182728
0.000435264
-0.00040194
-0.000701901
0.000803384
0.0005271
0.000569416
-0.000729679
0.000287906
-7.7316e-05
3.4752e-05
-4.56899e-05
0.000249121
-1.9182e-05
0.00094431
-0.000536511
0.0013028
0.000192036
-0.000578023
0.00168887
0.000264995
-0.000163679
0.00178191
-0.000182852
0.000254094
-0.00016436
0.00198906
-0.000441773
0.00036463
-0.00013006
0.00165221
-0.000441841
0.00080632
-2.7471e-05
-0.00137197
0.00104829
0.000712705
0.00126338
-0.00148739
-6.50116e-05
-0.000261215
-0.00134193
-0.000224821
-0.000362129
-0.000145575
-0.000328296
0.000856174
-6.84982e-05
0.00106111
-7.93793e-05
0.00149246
-0.000115976
0.0016878
0.00051113
-0.000182668
0.00184666
0.000361161
-0.000108211
0.00192141
0.000226655
7.77476e-06
0.00191834
-2.58817e-05
0.000137146
0.00145608
0.000172603
0.000427959
0.00128513
4.38072e-05
0.000147274
0.000909087
-2.80447e-05
0.000177559
0.00192493
-0.00123669
-0.00111826
0.00133921
0.0020426
-0.000609805
0.000190688
0.000301727
0.001762
-0.000279165
0.000104715
0.00045542
0.00121558
-0.000408624
0.000262855
0.000561519
0.000215177
-1.18531e-05
0.00114511
-0.000633012
-0.000872948
0.000922536
0.00123232
-0.000666385
0.00024268
0.000337016
0.000449191
0.000197824
-6.26158e-05
0.000915148
-0.00053238
-0.000791263
0.000857835
0.00100243
-0.000664886
0.000231242
0.000346765
0.000362345
0.000128766
-0.000109963
0.000791338
-0.000499739
-0.000728528
0.000799383
0.000927077
-0.000664684
0.000352247
0.00017697
0.000373648
0.000105011
-0.00011364
0.000851087
-0.000423094
-0.000696445
0.000401545
7.37331e-05
-0.000249263
0.000921307
-0.000454162
-0.000806814
0.000451466
9.71262e-05
-0.000276879
0.00101041
-0.000483297
-0.000871644
0.00048426
0.000115491
-0.000300436
0.00105264
-0.000501099
-0.000932415
0.000496783
0.000117355
-0.000330962
0.00104272
-0.000496264
-0.000954842
0.000447482
0.000127188
-0.000332101
0.000666919
-0.000378901
-0.000842963
0.00117779
-0.00142665
-0.0007873
0.00170285
0.00082493
0.00049822
0.000337644
-0.000483289
0.00111394
-0.00068336
-0.00125633
0.0004225
6.03788e-05
-0.000589058
0.000391572
-0.000386488
-0.00100809
0.000906105
-0.00187619
-0.000773649
0.00213545
0.000632768
0.00103267
0.000124646
-0.000883928
-0.000216475
-0.000453289
-0.00119124
0.000412427
-0.00248875
-0.000690633
0.00255128
0.000379238
0.00157697
-0.000200666
-0.00134286
-0.000763102
-0.000373987
-0.00113355
-0.000628806
-0.00261697
-0.00046782
-0.00220841
-0.000133143
-0.00139026
-0.000608182
-0.000209393
-0.000650991
0.000235506
-0.00034747
-0.000627981
0.000807053
-0.00146578
-0.000305131
0.000311319
-0.00019236
-0.000540137
0.00301895
-0.00161574
-0.000367469
-0.00122769
0.00260909
-0.000418486
0.000409956
0.00135685
0.00102158
0.000615798
-0.000385799
-0.000997646
-0.001663
-5.92397e-05
0.00407674
-0.000753064
-0.000715381
-0.00261936
0.001533
-0.000693124
0.00260076
-0.000624439
-0.00357235
0.00157364
0.00245503
-0.00310273
-0.000432053
0.00364136
0.00135408
0.00433507
0.000774729
-0.000150194
-0.00131757
0.00351356
0.00205531
-2.24366e-05
-0.00121119
0.00133629
0.00277791
0.00231952
-0.00292087
0.00270886
-0.0016351
0.000462005
-0.000199701
0.00585141
-0.00304378
-0.000458825
0.000360002
0.0080119
-0.00382346
0.00312468
-0.00146182
0.0140987
-0.00968255
0.00588116
-0.00228528
-0.00790478
0.0131202
-0.00380468
-0.0059466
-0.00841944
-0.00170061
-0.00561557
-0.00484034
-0.00115923
0.0044852
-0.00421675
-0.00539395
-0.000490174
-0.00483982
-0.000862398
-0.00456568
-0.00320357
-0.00114475
-0.00403791
-0.00402569
-0.000373867
-0.00397626
-0.00310533
8.8762e-05
-0.00194643
-0.000637853
0.00114958
-0.00254162
0.00096601
-0.00165509
-0.00154868
0.000291011
0.00320834
-0.00178707
-0.00109316
-0.00296936
-0.000283715
-0.000774674
-0.00180099
-0.000586191
-0.000997074
-0.0016614
0.000303842
0.00166062
-0.00180128
-0.000578035
-0.000278373
-0.000288285
-0.000334763
0.00142838
-0.00132511
-0.000672266
0.000280709
-0.000728227
0.000362768
0.00196258
-0.00200205
-0.00052944
-0.000159187
-0.000640305
-0.000369165
0.00125722
-0.000191922
-0.00159318
-0.000112699
0.000791259
-0.000138144
5.18194e-05
0.00131788
-0.000207471
-0.00105734
0.00109987
-0.000372407
-0.000479375
0.000534487
-0.000313734
-0.000224653
9.38364e-05
-0.000417918
-0.000849695
0.00222456
-0.000558433
-0.000381324
-0.00119121
0.00435435
-0.000523208
-0.00160762
0.00382067
-0.000506679
0.000622707
0.00208936
-0.000563145
0.000579689
0.00171399
-0.000895466
-0.00160028
-0.000989838
-0.00421541
0.000590492
-0.00264765
-0.00161935
-0.00367764
-0.00150035
-0.00219492
0.000602844
0.00255406
-0.00296238
-0.000382524
-0.00081706
-0.00187729
0.00236141
-0.00323815
0.000562884
-0.00170421
-0.00062958
0.00204554
-0.00243332
-0.00160262
-0.000402817
-0.000718888
0.00191912
-0.0028373
-0.00141371
-0.00027576
0.00041373
-0.00216027
-0.001257
-0.000163726
-0.000749508
-0.00264412
-0.00108585
-0.000134349
0.00040044
-0.00207417
-0.000998597
-0.00010201
-0.000652659
-0.00257387
-0.00084747
-0.000137054
0.000437832
-0.00171748
-0.000411151
-0.000779881
-0.000171878
0.00042374
-0.000631683
-0.00055677
0.000138799
-0.00075148
-0.00173883
-0.00969957
-0.00169422
-0.000886747
0.00985895
0.00106818
0.00427404
-9.78606e-05
0.0021079
-0.00115755
-0.000224
0.0019924
-0.000704777
-0.00240032
0.00223371
-0.000432329
1.18315e-06
0.000373694
6.2164e-05
-0.000272946
0.00031941
8.05878e-05
-2.60058e-07
-0.00298321
7.49855e-05
0.00288983
-0.00146434
0.0016732
-2.47201e-05
-0.00125108
-2.42089e-05
-8.11913e-05
-0.00108879
-3.235e-05
-7.40081e-05
-0.00106112
-3.35822e-05
-2.72065e-05
-0.00129211
-1.98072e-05
8.84278e-05
-0.00173131
-4.72461e-06
0.000192086
-0.00206804
-2.26879e-06
0.000110357
-0.00202839
-3.62127e-08
-0.000108915
-0.00171123
7.21332e-06
-0.000265741
-0.00148149
1.77174e-05
-0.000179823
-0.0014824
2.91949e-05
-9.14597e-05
-0.00161284
2.93245e-05
-3.97458e-05
-0.00144048
1.47731e-05
-0.000170533
-0.00100525
-9.29945e-07
9.05015e-05
-0.00100322
2.60518e-05
0.000670799
-0.0010133
6.65717e-05
-0.000215649
-0.000927742
0.000111894
-0.00119837
0.000737549
0.000115971
-0.00112214
-0.000658488
-0.00112933
0.0027281
-0.00131244
-0.00071511
0.000872443
-0.00108006
-0.000696056
0.00089267
-0.000452971
-0.000458284
-0.00216235
-0.000204369
0.00164612
2.37109e-05
-0.00131277
-0.000635177
0.000197805
-0.000411534
0.000149578
-0.000423611
-0.000887494
-0.000150441
0.000506514
0.000903828
-0.000636075
-0.000624462
0.000738175
0.000788005
-0.00036623
-0.000653398
0.00102536
-0.000160498
0.000255581
-0.000382236
0.00124652
-0.000647988
0.000548505
-0.000121722
0.00137673
-0.000534314
0.000500986
-9.69311e-05
0.00134842
-0.000133366
0.000278842
-0.00011727
0.0013135
1.54904e-05
0.000166239
-0.000146887
0.00133504
-5.45972e-05
0.00014691
-0.000113972
0.00141707
-0.000202515
0.000162587
-4.21496e-05
0.00153544
-0.000228604
0.000122021
-1.18375e-05
0.00162824
-7.52838e-05
7.3599e-06
-2.48393e-05
0.00167923
0.000150768
-0.000134491
-6.72176e-05
0.00166636
0.000358103
-0.000262978
-8.2178e-05
0.00161662
0.00049336
-0.000355104
-8.84854e-05
0.00153866
0.000547741
-0.000404856
-6.49105e-05
0.00145226
0.000543055
-0.0004284
-2.83286e-05
0.00134572
0.000551843
-0.000447923
2.5837e-06
0.00120193
0.000619443
-0.000474554
-1.11228e-06
0.00111811
0.000590578
-0.000511419
4.5631e-06
0.00107671
0.000590364
-0.00056333
1.42793e-05
0.00104142
0.000635019
-0.000623972
2.41607e-05
0.000973196
0.000685443
-0.000666286
4.90459e-05
0.000935022
0.000615022
-0.000691614
0.000114909
0.000364826
-0.000499952
-6.22885e-06
0.000994849
-0.00134737
-0.000904209
0.00162173
0.0017376
-0.00238795
0.00165949
-1.42373e-05
0.00182027
-0.00229329
0.00188771
0.000322818
0.00190456
-0.00254164
0.00201706
0.000440455
0.0015288
-0.00288851
8.29146e-05
0.00133267
-0.00308352
-7.55712e-07
0.000496467
-0.00240158
-6.41153e-05
-0.00302831
-0.00114185
-0.0065503
0.00398142
0.00461413
-0.00461124
-0.0107745
-0.00485245
-0.00632039
0.00322195
-0.00441652
-0.00268439
-0.00615039
0.00480077
0.000789913
-0.00462199
-0.00137212
-0.00436403
-0.00113579
-0.00431027
0.00469465
-0.00103185
-0.00582673
-0.000174718
-0.0033994
-0.000285826
0.00531824
-0.0034073
-0.00321894
-0.0013584
0.00135641
0.000805783
-0.00510679
-0.00115587
0.000259782
0.00161532
0.00097583
-0.00288714
-0.00599985
0.00621144
0.00597668
-0.00840299
0.00397608
-0.000969695
-0.000781751
0.00326511
0.000550177
-0.000438201
-0.000653516
0.000706729
0.000340923
3.67308e-05
-0.000535094
-0.000541623
0.00055701
0.000369748
0.000321305
0.000406058
-0.000306154
0.000292847
0.000704102
-0.000613368
0.000670422
0.000821598
-0.000734921
-0.000464473
0.000922316
9.98656e-05
6.30438e-05
-0.000414866
-0.000604527
0.000599763
0.000444092
0.000482956
-0.000456481
4.92711e-05
-9.78213e-05
-0.000254988
0.000383742
0.000236104
0.00032395
0.000314035
0.000513215
-8.75158e-05
0.000318404
-1.84921e-06
0.0010573
-0.000253672
0.0014287
-0.000233947
0.000300548
-0.000438223
0.00170815
-0.000436473
0.000307327
-0.000150353
0.00184024
-0.000456395
0.00033469
-1.03792e-05
0.00141014
-0.000420554
0.000682551
0.000168212
-0.00117523
0.000934634
0.000599458
0.00105136
-0.00130269
-7.78961e-05
-0.000215123
-0.00124411
-0.000223976
-0.000290823
-0.00112418
-0.000200497
-0.000355775
-0.000105275
-0.000449298
0.000862926
-0.000248668
0.00102701
-9.92846e-05
0.00107769
-2.03028e-05
0.00139533
-3.05311e-05
0.00180163
-9.6524e-05
0.000496785
0.00195452
0.000340436
-0.000309582
-0.000183805
0.00213348
0.000283546
-0.000190003
-0.000272412
0.00214984
0.000251469
-0.000271324
3.64163e-06
0.00219342
0.000170865
-0.000425309
0.000211101
0.0018518
-0.000119084
0.00036196
9.88763e-05
0.00137454
-8.27055e-05
0.00024162
0.000318343
0.0011994
1.05202e-05
-1.40366e-05
0.00017864
0.000801247
0.000289171
-6.48833e-05
0.000173841
0.00166035
-0.00113361
-0.000982354
0.00125703
0.0016639
-0.00058985
0.000287018
0.000299588
0.00139328
-0.000388209
0.000218837
0.00044035
0.000521789
0.000684209
0.000221542
-3.42791e-05
0.000989183
-0.00056292
-0.000845519
0.000941191
0.00104321
-0.00070751
0.000285406
0.00036856
0.000350335
0.00069243
0.000152161
-0.000151738
0.000740818
-0.000467787
-0.000771953
0.000849359
0.000902156
-0.000729987
0.000136127
0.00043291
0.000316042
0.000685279
6.32196e-05
-0.000162408
0.000721481
-0.000505742
-0.000734294
0.000834715
0.0008741
-0.00066124
0.000114862
0.000394019
0.000351457
0.000559042
8.11901e-05
-0.000117542
0.000740093
0.000649765
-0.000413617
-0.000624526
0.000365878
0.000592477
3.78179e-05
-0.000256135
0.000795267
0.000728739
-0.000433084
-0.000724778
0.000388192
0.000651986
4.42978e-05
-0.000289258
0.000825857
0.000786461
-0.000451593
-0.000772275
0.000390856
0.000704108
4.67589e-05
-0.00031592
0.000795671
0.00082253
-0.000439767
-0.000787323
0.000340334
0.000737062
4.07275e-05
-0.000322505
0.000485321
0.0008984
-0.000340364
-0.000702689
0.000959617
-0.00123581
-0.000700397
0.00146175
0.000697353
0.000428362
0.000249985
-0.000416363
0.000886053
0.00144268
-0.00061157
-0.00101948
0.000326516
0.0010333
-1.25568e-05
-0.000461232
0.000318278
0.00114581
-0.000357535
-0.00077967
0.00074564
-0.0014128
-0.000706773
0.00169218
0.00054916
8.88059e-05
-0.000619298
0.000726877
4.59621e-05
0.00185446
-0.000441593
-0.000909182
0.000500069
-0.00168415
-0.000699797
0.00193025
0.000376353
0.00107171
-0.000123956
-0.000823892
-0.000684962
0.00215362
-0.000306891
-0.000784999
-0.000931742
-0.00127672
-0.000206712
0.00173081
-0.000244755
-0.00176233
-0.000248161
0.00132463
-0.000133426
0.00117394
-0.000417776
-0.000867622
-0.000495104
0.000838187
-0.000109283
-0.000366627
-0.000289011
7.85561e-05
-0.000356517
7.40071e-05
-7.29887e-05
2.36997e-05