/*--------------------------------*- C++ -*----------------------------------*\
  =========                 |
  \\      /  F ield         | OpenFOAM: The Open Source CFD Toolbox
   \\    /   O peration     | Website:  https://openfoam.org
    \\  /    A nd           | Version:  7
     \\/     M anipulation  |
\*---------------------------------------------------------------------------*/
FoamFile
{
    version     2.0;
    format      ascii;
    class       volVectorField;
    location    "19";
    object      U;
}
// * * * * * * * * * * * * * * * * * * * * * * * * * * * * * * * * * * * * * //

dimensions      [0 1 -1 0 0 0 0];

internalField   nonuniform List<vector> 
15284
(
(-0.0511562 -0.0136832 -0.183766)
(-0.0467564 -0.00919239 -0.189808)
(-0.0454867 -0.00964184 -0.196374)
(-0.0423317 0.000287039 -0.211469)
(-0.0405877 0.00342057 -0.211647)
(-0.0380731 0.0090748 -0.225985)
(-0.0356737 0.010925 -0.217208)
(-0.0308949 0.0214096 -0.224111)
(-0.0271233 0.0386968 -0.202081)
(-0.0242665 0.0705499 -0.212694)
(-0.0238735 0.122993 -0.170429)
(-0.0161734 0.126765 -0.131205)
(-0.0183491 0.11593 -0.102166)
(-0.00544859 0.093794 -0.0890271)
(-0.00223415 0.0398366 -0.105055)
(-0.0490908 0.141147 -0.137478)
(0.0049444 0.0228524 -0.0828629)
(0.00373781 0.0297086 -0.118782)
(-0.000338372 0.0178797 -0.130892)
(0.0129225 0.0153986 -0.123505)
(-0.0111278 0.00823918 -0.130166)
(0.00220915 0.0158846 -0.107037)
(-0.0316767 -0.00989905 -0.0823177)
(-0.0381036 0.00110677 -0.103073)
(-0.0447202 0.0156 -0.138794)
(-0.0463357 -0.00813364 -0.102407)
(-0.0159013 -0.00124736 -0.129188)
(-0.0138327 -0.00508215 -0.00112628)
(0.0371068 0.00414387 -0.0502588)
(0.101702 0.0360098 -0.174716)
(0.0262735 -0.0191216 -0.0554287)
(0.0487776 0.0122714 -0.0808673)
(0.0354955 0.0349301 -0.117672)
(0.0398951 0.0240002 -0.138047)
(0.0182345 0.0238354 -0.118448)
(0.0210661 0.0246867 -0.138631)
(-0.0543262 -0.0087013 -0.18517)
(-0.0461381 -0.00483144 -0.191385)
(-0.0420716 -0.00690461 -0.192248)
(-0.0360416 0.00252882 -0.208831)
(-0.0354344 0.00420418 -0.204902)
(-0.0320234 0.00955029 -0.221724)
(-0.0315576 0.009998 -0.211384)
(-0.026944 0.0189466 -0.222327)
(-0.0253438 0.034196 -0.199801)
(-0.0227392 0.0658501 -0.211389)
(-0.0230743 0.119962 -0.170374)
(-0.0245741 0.123558 -0.136384)
(-0.0335844 0.106436 -0.10312)
(-0.0245374 0.0788777 -0.0831857)
(-0.0185379 0.0220904 -0.0927774)
(-0.0560613 0.118662 -0.130774)
(-0.141116 0.0719156 -0.0757102)
(-0.0337706 0.0488787 -0.102258)
(-0.112616 0.0483165 -0.0844474)
(-0.0112387 0.0301637 -0.10705)
(0.0173816 0.0301896 -0.131801)
(0.0115118 0.0209984 -0.129139)
(-0.0029346 0.0139784 -0.14231)
(0.0232176 0.0188951 -0.151531)
(0.0114669 0.0224469 -0.153271)
(0.011473 0.0154025 -0.130442)
(0.00893196 0.0119961 -0.147997)
(0.0223264 0.00796358 -0.153334)
(0.027579 0.0068042 -0.165275)
(0.0294826 0.00469659 -0.179442)
(0.0251117 -1.63848e-05 -0.189592)
(0.0166192 -0.00547553 -0.193961)
(0.00566519 -0.0105511 -0.193225)
(-0.00557305 -0.0155149 -0.189576)
(-0.0127618 -0.0209795 -0.183503)
(-0.0210605 -0.0310023 -0.180754)
(-0.0296192 -0.0352015 -0.169895)
(-0.0385309 -0.0344109 -0.15573)
(-0.0451092 -0.0328902 -0.141229)
(-0.0475381 -0.0344788 -0.132323)
(-0.0521547 -0.0388302 -0.119504)
(-0.0552091 -0.0371753 -0.110413)
(-0.0582306 -0.0349795 -0.102705)
(-0.0599045 -0.0368437 -0.0953187)
(-0.0584059 -0.0356575 -0.090452)
(-0.0570116 -0.0344823 -0.0860625)
(-0.0603749 -0.0371794 -0.08515)
(-0.060744 -0.0384741 -0.0842264)
(-0.0626852 -0.0395904 -0.0827521)
(-0.066402 -0.044839 -0.0833407)
(-0.0692199 -0.0475751 -0.0842418)
(-0.074251 -0.0515146 -0.0853701)
(-0.0768388 -0.0540555 -0.0865339)
(-0.0830938 -0.058622 -0.0883575)
(-0.0862965 -0.0619663 -0.0897865)
(-0.0929946 -0.0660572 -0.0914174)
(-0.0970408 -0.0695264 -0.0928831)
(-0.10479 -0.0734521 -0.0947408)
(-0.110055 -0.0775751 -0.0963017)
(-0.119093 -0.0812418 -0.0977686)
(-0.126548 -0.0856756 -0.0993967)
(-0.136839 -0.087921 -0.100962)
(-0.146128 -0.0952699 -0.102403)
(-0.157702 -0.0951476 -0.104531)
(-0.173469 -0.0910447 -0.109011)
(-0.188112 -0.0935479 -0.110767)
(-0.207152 -0.0880609 -0.115078)
(-0.226861 -0.0858143 -0.113151)
(-0.248756 -0.0680972 -0.115363)
(-0.275502 -0.0310769 -0.108957)
(-0.297126 -0.00825274 -0.0966381)
(-0.300082 0.0340855 -0.0923997)
(-0.311344 0.0597889 -0.0721457)
(-0.306696 0.0799936 -0.0942729)
(-0.305737 0.0926361 -0.0296097)
(-0.383147 0.0662915 0.00184977)
(-0.436827 0.0293636 0.031406)
(-0.536338 -0.0537229 0.0699404)
(-0.642768 -0.143559 -0.00313218)
(-0.700925 -0.359657 0.00533346)
(-0.705687 -0.362593 0.00224922)
(-0.719616 -0.406261 -0.0823142)
(-0.804166 -0.518579 -0.0574375)
(-0.0701075 0.0102287 -0.184859)
(-0.0601014 0.00845978 -0.186165)
(-0.0545026 0.0036415 -0.181676)
(-0.0465549 0.000356351 -0.188848)
(-0.0429997 0.00350896 -0.189633)
(-0.0370496 -0.0050082 -0.207403)
(-0.0364595 -0.00600605 -0.203793)
(-0.0329253 -0.0109099 -0.221734)
(-0.0324154 -0.0108833 -0.211582)
(-0.0279612 -0.0195136 -0.223149)
(-0.0265456 -0.0342401 -0.200362)
(-0.0241021 -0.0652686 -0.211884)
(-0.0243249 -0.11891 -0.170615)
(-0.0255747 -0.122365 -0.136415)
(-0.033645 -0.105552 -0.103129)
(-0.023713 -0.0783093 -0.0835947)
(-0.0176226 -0.0214422 -0.0932261)
(-0.0557125 -0.118207 -0.13362)
(-0.0938386 0.0668621 -0.0560239)
(-0.0535397 0.0078865 -0.0643905)
(-0.0235001 0.000543725 -0.0461936)
(-0.0641127 0.016391 -0.153889)
(-0.0646775 0.0410015 -0.0643977)
(-0.000824838 0.0337739 -0.0864858)
(0.015952 0.0323102 -0.132391)
(0.0205034 0.0187221 -0.134407)
(0.0291259 0.0146137 -0.137403)
(0.0300855 0.0197246 -0.151878)
(0.0314443 0.0187088 -0.169999)
(0.0328823 0.0166841 -0.18888)
(0.036493 0.0153077 -0.207683)
(0.0363694 0.0208473 -0.212778)
(0.0322642 0.0300382 -0.190616)
(0.0304202 0.0345413 -0.176411)
(0.0168607 0.0143485 -0.145112)
(0.0230225 0.0113149 -0.160287)
(0.0248708 0.00903815 -0.183341)
(0.0274638 0.00472193 -0.199922)
(0.0232129 -0.00114668 -0.212591)
(0.0179546 -0.00824478 -0.216804)
(0.00886508 -0.0145346 -0.214729)
(0.000858035 -0.0205322 -0.209628)
(-0.0110198 -0.028148 -0.201375)
(-0.0218307 -0.0305677 -0.189372)
(-0.031894 -0.0319354 -0.172921)
(-0.0404661 -0.0301531 -0.155281)
(-0.0463074 -0.0298743 -0.142055)
(-0.0520657 -0.0349066 -0.12908)
(-0.0558611 -0.0341815 -0.11926)
(-0.0575066 -0.0322265 -0.108232)
(-0.0581267 -0.0337046 -0.101475)
(-0.0588849 -0.0330005 -0.089034)
(-0.0568505 -0.0298487 -0.0826042)
(-0.0555509 -0.0272874 -0.0784415)
(-0.0588656 -0.0306398 -0.0785475)
(-0.0593526 -0.0316981 -0.0779799)
(-0.0615573 -0.0348374 -0.0781848)
(-0.0656916 -0.0382019 -0.0792306)
(-0.0689215 -0.0422657 -0.0806433)
(-0.0729018 -0.0447994 -0.0823661)
(-0.0759916 -0.0476548 -0.0836099)
(-0.0814954 -0.0519703 -0.0851485)
(-0.08528 -0.0553237 -0.0865027)
(-0.0911523 -0.0586058 -0.0879119)
(-0.0957488 -0.0620974 -0.0892731)
(-0.102552 -0.0648025 -0.0906862)
(-0.108106 -0.0686162 -0.0920686)
(-0.11615 -0.0702205 -0.0927783)
(-0.123165 -0.0755252 -0.0940716)
(-0.131214 -0.0766737 -0.0960364)
(-0.142514 -0.0743487 -0.0985345)
(-0.152702 -0.0766128 -0.0984887)
(-0.165573 -0.0739521 -0.101354)
(-0.177823 -0.0761521 -0.10207)
(-0.193939 -0.0712803 -0.10658)
(-0.213748 -0.0531916 -0.106037)
(-0.234755 -0.0418401 -0.100374)
(-0.246254 -0.0157191 -0.101961)
(-0.252088 0.0119837 -0.0883521)
(-0.261264 0.050599 -0.0894518)
(-0.254947 0.0952241 -0.0775413)
(-0.253936 0.114032 -0.0288508)
(-0.268058 0.107333 -0.00436125)
(-0.314879 0.088407 -0.00324254)
(-0.385949 0.0480877 -0.00504138)
(-0.446966 -0.00626479 -0.00515654)
(-0.560475 -0.0731686 0.00559152)
(-0.594386 -0.127259 -0.0370535)
(-0.737183 -0.274829 -0.10151)
(-0.835196 -0.401675 -0.155117)
(-0.903694 -0.502634 -0.191654)
(-1.31331 -0.678937 -0.544018)
(-0.111918 -0.0834871 -0.225756)
(-0.107039 -0.0862043 -0.226832)
(-0.0605387 -0.129012 -0.203181)
(-0.0507333 -0.114495 -0.200951)
(-0.10597 0.00985328 -0.166196)
(-0.0887433 -0.00502378 -0.143057)
(-0.0764896 -0.0154403 -0.126224)
(-0.0629371 -0.0151807 -0.113882)
(-0.05175 -0.0154786 -0.107954)
(-0.0372696 -0.00317812 -0.122724)
(-0.0235363 0.0298909 -0.114049)
(-0.0162701 0.0510755 -0.135011)
(-0.00643162 0.174903 -0.109946)
(-0.0494758 0.0329965 -0.070573)
(-0.0583065 -0.0638846 -0.177075)
(0.0522163 0.433462 -0.223355)
(-0.086214 0.0220361 -0.0612538)
(-0.0634443 0.00107088 -0.0718235)
(-0.0640377 0.0688861 -0.122969)
(-0.0984622 0.096717 -0.0305109)
(-0.0286613 0.0388091 -0.0416943)
(-0.00497149 0.0347605 -0.0745979)
(0.00571333 0.0347774 -0.114087)
(0.0174187 0.0113059 -0.138368)
(0.0337266 0.000670386 -0.132658)
(0.0254303 0.00663732 -0.125993)
(0.0186258 0.0360067 -0.113562)
(-0.00815912 0.0420507 -0.0579382)
(-0.0153765 0.0437635 -0.0775118)
(0.00957494 0.0311152 -0.148295)
(0.0325034 0.00110053 -0.132416)
(0.0388968 0.00163226 -0.127424)
(0.0459471 0.00957453 -0.150775)
(0.0422945 0.0102519 -0.172256)
(0.0361783 0.00764922 -0.191254)
(0.0285806 0.00103436 -0.198809)
(0.0226199 -0.00613331 -0.202208)
(0.0103173 -0.00926678 -0.194096)
(-0.000992509 -0.0114936 -0.184929)
(-0.0130932 -0.0133713 -0.177211)
(-0.0249877 -0.0148504 -0.16864)
(-0.0330872 -0.0190063 -0.158807)
(-0.0403148 -0.0217062 -0.149339)
(-0.0493564 -0.0280532 -0.143095)
(-0.0537373 -0.0265193 -0.131711)
(-0.0554579 -0.0250354 -0.120472)
(-0.0560472 -0.0260197 -0.110363)
(-0.0582856 -0.0287886 -0.0965057)
(-0.058124 -0.0259161 -0.0857255)
(-0.0580424 -0.0207574 -0.074257)
(-0.0613614 -0.022194 -0.0745144)
(-0.0597153 -0.0205585 -0.071546)
(-0.060334 -0.0198345 -0.0685493)
(-0.0631069 -0.0235185 -0.0718267)
(-0.0646848 -0.0240775 -0.0725889)
(-0.0694442 -0.0289208 -0.076145)
(-0.0720556 -0.0325618 -0.0774626)
(-0.0764494 -0.035086 -0.0796269)
(-0.0786375 -0.0385055 -0.0804583)
(-0.0834969 -0.040495 -0.0821428)
(-0.087072 -0.0439669 -0.0827844)
(-0.0925831 -0.0449373 -0.0841351)
(-0.0971849 -0.0481 -0.084778)
(-0.102844 -0.0485603 -0.0860804)
(-0.108049 -0.0508555 -0.0861614)
(-0.115215 -0.0505094 -0.0868485)
(-0.121038 -0.0532291 -0.0865755)
(-0.128321 -0.0515572 -0.0879656)
(-0.137617 -0.0471887 -0.0897832)
(-0.146456 -0.0461921 -0.0891859)
(-0.155126 -0.0413793 -0.0908983)
(-0.164924 -0.0399067 -0.0874584)
(-0.179844 -0.0274166 -0.090509)
(-0.190605 -0.00436952 -0.0911957)
(-0.205494 0.0090531 -0.0800136)
(-0.197488 0.0369089 -0.0823767)
(-0.183928 0.0764919 -0.0690181)
(-0.159581 0.103936 -0.058234)
(-0.149265 0.141266 -0.0441911)
(-0.125239 0.112546 -0.0333487)
(-0.159283 0.117748 -0.0434746)
(-0.191742 0.122267 -0.0233783)
(-0.251139 0.107623 -0.00954321)
(-0.316227 0.0698549 0.00122013)
(-0.395294 0.0118687 -0.00986654)
(-0.483275 -0.0542704 -0.0602255)
(-0.571546 -0.126124 -0.0921658)
(-0.731357 -0.219536 -0.144151)
(-0.75535 -0.267817 -0.232929)
(-0.881859 -0.323821 -0.414038)
(-0.956852 -0.257382 -0.638002)
(-0.839368 -0.114802 -0.631186)
(-0.632651 -0.0567913 -0.602962)
(-0.529056 -0.00196885 -0.545388)
(-0.43631 0.0192691 -0.513443)
(-0.383756 0.0462191 -0.486745)
(-0.322325 0.0821715 -0.409874)
(-0.270061 0.0935234 -0.345872)
(-0.0932701 -0.0717115 -0.219432)
(-0.0650216 -0.0797367 -0.211048)
(-0.0764335 -0.0917147 -0.213409)
(-0.0550642 -0.0832829 -0.198314)
(-0.0461058 -0.081506 -0.191196)
(-0.0403701 -0.0892608 -0.188641)
(-0.0396576 -0.108342 -0.190473)
(-0.000268918 -0.0864289 -0.173413)
(-0.000791348 -0.0792822 -0.169809)
(-0.0198771 -0.0962475 -0.177358)
(-0.00612265 -0.0943628 -0.161205)
(-0.00610493 -0.120344 -0.154604)
(0.00490708 -0.140441 -0.167076)
(0.00297714 -0.152145 -0.230534)
(-0.0431009 -0.163127 -0.255284)
(-0.0885564 -0.0253903 -0.163436)
(-0.0801367 -0.0221109 -0.156011)
(-0.0706953 -0.0228615 -0.14934)
(-0.0640759 -0.0215993 -0.147378)
(-0.0527093 -0.0235767 -0.142521)
(-0.0424604 -0.0254186 -0.13996)
(-0.0404087 -0.0131916 -0.127508)
(-0.0415132 -0.00993477 -0.128887)
(-0.0187939 -0.000488207 -0.164111)
(-0.0173352 -0.00467392 -0.167772)
(-0.00914844 -0.00657961 -0.173664)
(-0.00620557 -0.00704534 -0.173705)
(0.00125422 -0.00394574 -0.17741)
(0.00848422 0.00624342 -0.17003)
(0.0165723 0.0103848 -0.174517)
(0.0161152 0.021267 -0.166629)
(0.0110833 0.00613971 -0.176077)
(0.0174721 0.0317819 -0.153235)
(0.0168163 0.0125784 -0.136419)
(0.0294134 0.0269949 -0.128854)
(-0.00218555 0.0421512 -0.10185)
(-0.0995146 -0.0457728 -0.0614202)
(-0.0345005 -0.00346719 -0.0101047)
(0.0700244 0.0179529 -0.0462774)
(0.107688 -0.0830455 -0.119461)
(0.0797252 0.076548 -0.164505)
(0.0650654 -0.0154754 -0.20513)
(0.024318 0.00646705 -0.333579)
(-0.0175712 0.0437398 -0.234444)
(-0.0176918 0.0294805 -0.152672)
(0.00473459 -0.00467207 -0.167933)
(0.00548016 -0.020513 -0.149075)
(-0.000579514 -0.0128047 -0.131544)
(0.00192077 0.00666774 -0.138935)
(0.00473171 0.00968775 -0.165493)
(0.00675585 -0.00226925 -0.195882)
(0.00526936 -0.021004 -0.19965)
(0.00423845 -0.0279732 -0.17098)
(0.00342501 -0.0195128 -0.128533)
(0.00299902 -0.00173928 -0.105441)
(0.000323443 0.00967423 -0.110799)
(-0.00352656 0.0139498 -0.127335)
(-0.00545274 0.0122844 -0.147111)
(-0.00540537 0.00803149 -0.165444)
(-0.00761686 0.00268528 -0.182435)
(-0.0176796 0.00663319 -0.182623)
(-0.0264497 0.00498928 -0.179903)
(-0.028005 -0.00016677 -0.17777)
(-0.0297252 -0.00345949 -0.171855)
(-0.033267 -0.00318793 -0.163737)
(-0.0383773 0.000136382 -0.154669)
(-0.0429119 0.00143659 -0.15474)
(-0.0527281 0.00758803 -0.1555)
(-0.0689543 0.00791467 -0.152659)
(-0.0774519 -0.00339317 -0.170519)
(-0.082774 -0.0141086 -0.186225)
(-0.104013 -0.0253638 -0.226362)
(-0.143381 0.0128881 -0.231372)
(-0.217928 0.0233309 -0.20636)
(-0.283695 0.0345165 -0.21546)
(-0.039359 -0.019934 -0.0984146)
(-0.0780458 0.0395838 -0.141317)
(-0.0329444 0.0203125 -0.11586)
(0.0256602 0.023478 -0.12003)
(0.0269494 0.0247572 -0.104228)
(-0.00437355 0.0327205 -0.0967985)
(-0.00224843 0.0154847 -0.0788635)
(0.00214662 0.00548337 -0.00516281)
(0.0132478 0.0433942 -0.0720456)
(0.0173386 0.0405356 -0.114895)
(0.0267145 0.0207537 -0.135432)
(0.0315038 0.00999342 -0.138121)
(0.0401687 0.00351195 -0.145214)
(0.0384214 0.00322382 -0.16208)
(0.0453626 0.00516695 -0.168517)
(0.0465592 0.00391732 -0.166907)
(0.0477648 0.00541627 -0.156701)
(0.0431408 0.00878954 -0.150483)
(0.0339673 -0.000697931 -0.115588)
(0.036107 0.00284213 -0.134816)
(0.0372432 0.000347712 -0.146327)
(0.0382161 0.000382885 -0.161404)
(0.0323768 -0.00191395 -0.174419)
(0.0244088 -0.00523945 -0.184419)
(0.0117496 -0.00753197 -0.191087)
(0.00210598 -0.0113911 -0.191087)
(-0.0095667 -0.0155152 -0.188091)
(-0.0196637 -0.0188421 -0.180396)
(-0.0324392 -0.0257881 -0.177275)
(-0.0413839 -0.0268604 -0.164426)
(-0.0489441 -0.0245718 -0.147862)
(-0.0513927 -0.0219855 -0.132345)
(-0.0528739 -0.0227674 -0.121051)
(-0.0586826 -0.0266172 -0.112574)
(-0.0594725 -0.0250208 -0.103902)
(-0.0578395 -0.024448 -0.0926921)
(-0.0592152 -0.023979 -0.0851529)
(-0.0596359 -0.0208843 -0.0794112)
(-0.0596118 -0.0190204 -0.0728872)
(-0.0612216 -0.0198882 -0.073272)
(-0.0621352 -0.0196405 -0.0721913)
(-0.0642891 -0.0208074 -0.0708932)
(-0.0674002 -0.0244153 -0.0734659)
(-0.0703804 -0.0278045 -0.0746287)
(-0.0742728 -0.0293842 -0.076628)
(-0.0777782 -0.0332017 -0.0775516)
(-0.0811817 -0.0342208 -0.0786364)
(-0.0850226 -0.038098 -0.0794663)
(-0.0895218 -0.0379288 -0.0805233)
(-0.0940421 -0.0417223 -0.0813301)
(-0.0985769 -0.0407061 -0.0820198)
(-0.103602 -0.0441592 -0.0822025)
(-0.108864 -0.0437528 -0.0828546)
(-0.114781 -0.0402639 -0.0841194)
(-0.12276 -0.0425019 -0.0831285)
(-0.128081 -0.0384135 -0.0851984)
(-0.135045 -0.0373317 -0.0833845)
(-0.142828 -0.0336182 -0.0849635)
(-0.152777 -0.0224542 -0.0852358)
(-0.164975 -0.0165008 -0.081417)
(-0.168919 -0.00529931 -0.086643)
(-0.17612 0.0190799 -0.0829733)
(-0.180139 0.038418 -0.0723315)
(-0.158941 0.0598488 -0.0684345)
(-0.130987 0.0917562 -0.0499539)
(-0.10049 0.121328 -0.0280961)
(-0.0895912 0.114304 -0.0406963)
(-0.0737232 0.105953 -0.0408182)
(-0.063049 0.0959217 -0.0487592)
(-0.0957259 0.0999936 -0.034214)
(-0.119388 0.0977164 -0.049734)
(-0.149904 0.107715 -0.0427218)
(-0.17993 0.103962 -0.0367326)
(-0.22405 0.0870571 -0.028377)
(-0.198396 0.106862 -0.0334188)
(-0.207554 0.0802111 -0.0510492)
(-0.220642 0.0534365 -0.0670498)
(-0.209322 0.0869619 -0.0493971)
(-0.238031 0.0656228 -0.06366)
(-0.272591 0.0416015 -0.0712609)
(-0.322255 0.00724445 -0.082027)
(-0.333514 -0.0128069 -0.0986533)
(-0.350102 -0.0543451 -0.145697)
(-0.377509 -0.0745786 -0.230445)
(-0.417922 -0.0746184 -0.324392)
(-0.441984 -0.0508847 -0.4418)
(-0.50619 -0.0446295 -0.509328)
(-0.422134 0.0261197 -0.439572)
(-0.356015 0.0424805 -0.450177)
(-0.307042 0.120211 -0.436867)
(-0.380533 0.06333 -0.490649)
(-0.315463 0.114075 -0.425876)
(-0.258744 0.133435 -0.339203)
(-0.198442 0.126569 -0.296699)
(-0.151616 0.118643 -0.245427)
(-0.0929324 0.121497 -0.201498)
(-0.162889 0.116039 -0.2402)
(-0.216511 0.0942829 -0.285652)
(-0.0785781 -0.0552646 -0.221875)
(-0.0547001 -0.0609368 -0.217893)
(-0.0376105 -0.053315 -0.206981)
(-0.0434479 -0.0668599 -0.199297)
(-0.0181044 -0.0567763 -0.19408)
(-0.0230449 -0.0673058 -0.189859)
(-0.00934788 -0.0583545 -0.183537)
(-0.0076271 -0.0693705 -0.175929)
(0.0106126 -0.0360542 -0.164429)
(0.0217013 -0.0421518 -0.160114)
(0.0183689 -0.0411481 -0.153444)
(0.0126601 -0.0470625 -0.142279)
(0.014758 -0.0611709 -0.125475)
(0.0137001 -0.0748558 -0.124424)
(-0.017068 -0.0754893 -0.142663)
(-0.0163141 -0.114797 -0.174339)
(-0.0229649 -0.133839 -0.236247)
(-0.0239931 -0.120058 -0.2621)
(-0.0609416 -0.142398 -0.29852)
(-0.137068 -0.0621261 -0.271477)
(-0.130977 -0.0491041 -0.233358)
(-0.12396 -0.0282603 -0.200202)
(-0.110788 -0.0170362 -0.178791)
(-0.104483 -0.00926449 -0.165615)
(-0.0933984 -0.00895601 -0.152471)
(-0.0857234 -0.0068539 -0.146106)
(-0.075129 -0.00971644 -0.138315)
(-0.0688862 -0.00961977 -0.138682)
(-0.0582629 -0.0119938 -0.135438)
(-0.0530694 -0.0132294 -0.133301)
(-0.0459334 -0.0137511 -0.127505)
(-0.0718701 -0.015361 -0.149598)
(-0.0508631 -0.00579396 -0.14518)
(-0.0408213 -0.00664902 -0.133646)
(-0.0187745 -0.00648267 -0.144312)
(-0.019255 -0.00220931 -0.155133)
(-0.00489941 0.00955344 -0.182124)
(0.00972367 0.00637968 -0.148072)
(0.0109106 0.00612419 -0.126083)
(0.0121292 0.00435649 -0.106934)
(0.0108316 0.00412461 -0.0952395)
(0.00388152 0.00128027 -0.10119)
(-0.00452996 -0.00701569 -0.136051)
(-0.00085329 -0.0098639 -0.181936)
(0.0114769 0.000693239 -0.197362)
(0.0205281 0.0106002 -0.174218)
(0.0162693 0.0126619 -0.143281)
(0.0117535 0.0110129 -0.128915)
(0.00893882 0.00907514 -0.141467)
(0.0170461 0.0185328 -0.152972)
(0.00144808 0.0397263 -0.110766)
(-0.0265345 0.0404976 -0.0845858)
(0.0353893 0.00442337 -0.103131)
(0.110316 -0.0197563 -0.0837566)
(0.0676889 -0.0572091 -0.092722)
(0.0529846 -0.0201367 0.0427447)
(-0.0748733 0.165541 0.243898)
(-0.038038 0.118425 0.15059)
(-0.0716606 0.0456238 0.339273)
(0.0488852 -0.0345807 0.304369)
(0.0581775 0.0260119 0.032982)
(-0.0347791 0.0753812 -0.069523)
(-0.0198164 0.0659285 -0.0735508)
(0.0309206 0.00959924 -0.12131)
(0.0572946 -0.022539 -0.152955)
(0.0532453 -0.0211656 -0.178508)
(0.0282665 -0.00373315 -0.186027)
(0.018176 0.00606116 -0.177033)
(0.0154914 0.00273819 -0.175189)
(0.0161363 -0.00695319 -0.18304)
(0.0124755 -0.00977014 -0.197833)
(0.00209257 -0.00347043 -0.213472)
(-0.0113323 0.00717984 -0.224105)
(-0.0250176 0.0156163 -0.227058)
(-0.0350001 0.0210572 -0.223031)
(-0.0419203 0.022476 -0.214624)
(-0.0456727 0.0222375 -0.203143)
(-0.0479659 0.0207379 -0.18961)
(-0.0496262 0.0190696 -0.176153)
(-0.0543008 0.0184713 -0.165832)
(-0.0618178 0.0200262 -0.160141)
(-0.0721441 0.0230528 -0.158065)
(-0.083057 0.0271574 -0.157705)
(-0.0908829 0.0286104 -0.153081)
(-0.0963659 0.0265082 -0.15782)
(-0.119824 0.031665 -0.161876)
(-0.159484 0.0222418 -0.149742)
(-0.181332 0.021164 -0.156099)
(-0.208873 0.0238859 -0.158336)
(-0.23713 0.0210668 -0.154381)
(-0.290864 0.0172731 -0.14616)
(-0.333892 0.0152885 -0.111993)
(-0.35253 0.0054032 -0.11021)
(-0.0932909 0.0372148 -0.0670014)
(-0.0876808 0.0204749 -0.0928384)
(-0.0826274 0.0153819 -0.0834436)
(-0.0640703 0.00233412 -0.0931377)
(-0.00773737 -0.0420627 -0.0737095)
(0.00729664 -0.0239486 -0.0646737)
(0.149112 -0.129298 -0.0849519)
(-0.0967944 0.0879442 -0.0307797)
(0.0215354 0.0383303 -0.0212381)
(0.00620837 0.0339599 -0.0573092)
(0.0378462 0.0183661 -0.0785221)
(0.0166481 0.0685461 -0.0460498)
(-0.020601 0.0563657 -0.0168915)
(-0.0581272 0.0432773 -0.0225898)
(0.00829389 0.0330605 -0.0885315)
(0.0174066 0.0219168 -0.0796326)
(-0.00146302 0.00280676 -0.0777484)
(-0.0400658 0.026918 -0.0326514)
(-0.0490858 0.0320343 -0.0376337)
(-0.0520282 0.0335522 -0.119901)
(-0.0477932 0.0178767 -0.0197896)
(0.0404636 0.0177207 -0.0703755)
(0.0369698 0.0108077 -0.116365)
(0.0379209 -0.00438488 -0.138108)
(0.0325062 -0.0117672 -0.142898)
(0.0318803 -0.0119643 -0.153837)
(0.0399495 -0.000256895 -0.14364)
(0.0398649 0.00436058 -0.140574)
(0.0410872 0.00394202 -0.137558)
(0.0422851 0.00551102 -0.14114)
(0.0463151 0.0169025 -0.129031)
(0.0277955 0.0248367 -0.122182)
(0.0334193 0.0128634 -0.138143)
(0.0375378 0.00775184 -0.136074)
(0.0391862 0.00259898 -0.137137)
(0.0368395 0.00556616 -0.15105)
(0.0307908 0.00647633 -0.166287)
(0.0252888 0.00341581 -0.180266)
(0.0187417 -0.00211038 -0.188188)
(0.0110285 -0.00865567 -0.193326)
(0.00137383 -0.0114001 -0.188879)
(-0.00811089 -0.0160182 -0.180892)
(-0.0176262 -0.0188884 -0.173)
(-0.0271047 -0.0205675 -0.163064)
(-0.0401184 -0.0257467 -0.158991)
(-0.0472644 -0.0227384 -0.148465)
(-0.0525581 -0.0178525 -0.131739)
(-0.0556486 -0.0176983 -0.115913)
(-0.0584284 -0.0227745 -0.0974926)
(-0.0588763 -0.0157256 -0.086558)
(-0.0576731 -0.0126707 -0.0771811)
(-0.0612238 -0.013241 -0.0723043)
(-0.0571942 -0.00854642 -0.0687061)
(-0.0566816 -0.00881845 -0.0675094)
(-0.0617095 -0.0118337 -0.071891)
(-0.0604162 -0.0131088 -0.0699414)
(-0.0620925 -0.0154451 -0.0695079)
(-0.0647182 -0.0167564 -0.0709354)
(-0.0682022 -0.0197729 -0.0720345)
(-0.0714886 -0.0210191 -0.0734552)
(-0.0742292 -0.0244064 -0.0737654)
(-0.0773207 -0.0239347 -0.074302)
(-0.0811816 -0.026781 -0.0747985)
(-0.0846308 -0.025786 -0.0754991)
(-0.0882484 -0.0286518 -0.0754698)
(-0.0920138 -0.0283786 -0.075587)
(-0.0961023 -0.0255062 -0.0761953)
(-0.102372 -0.0265329 -0.0752872)
(-0.105359 -0.0234898 -0.0775143)
(-0.109039 -0.022842 -0.0763512)
(-0.113112 -0.020859 -0.0771027)
(-0.120877 -0.0142864 -0.0778395)
(-0.127385 -0.0111889 -0.075076)
(-0.12809 -0.00770194 -0.0773169)
(-0.132992 0.00564086 -0.0771762)
(-0.139394 0.0122855 -0.0739731)
(-0.131058 0.0248269 -0.0730069)
(-0.128175 0.0419257 -0.0659468)
(-0.107815 0.0441985 -0.0582312)
(-0.0847067 0.0571141 -0.0520894)
(-0.0728585 0.0632037 -0.0436481)
(-0.0515126 0.0490201 -0.0386279)
(-0.0351486 0.0279294 -0.0291726)
(-0.0285752 -0.00683634 -0.02572)
(-0.035759 -0.0417211 -0.0466564)
(-0.0482829 -0.0589825 -0.0834313)
(-0.0351842 -0.0623937 -0.0832599)
(-0.0497588 -0.0876292 -0.0310942)
(-0.0614163 -0.0966958 -0.0188982)
(-0.080491 -0.114978 -0.0180007)
(-0.108977 -0.103564 -0.0391029)
(-0.135367 -0.105661 -0.0591469)
(-0.142222 -0.102864 -0.0600493)
(-0.16189 -0.0941578 -0.0661292)
(-0.179634 -0.0835209 -0.0705591)
(-0.219885 -0.0618937 -0.0717753)
(-0.230958 -0.0379665 -0.0926567)
(-0.240597 0.00674222 -0.0965027)
(-0.266314 0.0332385 -0.109523)
(-0.130121 0.0200755 -0.153086)
(-0.116372 0.00812854 -0.156563)
(-0.107151 0.00255191 -0.155081)
(-0.0982531 -0.00333723 -0.153022)
(-0.0913578 -0.00860375 -0.151979)
(-0.0864826 -0.0162201 -0.151266)
(-0.0829652 -0.0231499 -0.154804)
(-0.0789707 -0.0221436 -0.162256)
(-0.0725908 -0.0192481 -0.169302)
(-0.0648149 -0.0151016 -0.177704)
(-0.0548732 -0.01411 -0.188018)
(-0.0425785 -0.00290181 -0.205092)
(-0.0295025 0.00189251 -0.209366)
(-0.0131773 0.0103205 -0.225465)
(0.000790085 0.0129555 -0.216175)
(0.0146332 0.0203292 -0.222143)
(0.0235921 0.0338026 -0.19943)
(0.0278305 0.0660916 -0.209333)
(0.0351213 0.121287 -0.166513)
(0.0351999 0.127192 -0.125082)
(0.0487157 0.122352 -0.101091)
(0.0293143 0.101784 -0.0646695)
(0.00472271 0.0564179 -0.0763741)
(0.0441766 0.133751 -0.0958525)
(0.0193097 0.256961 -0.112315)
(0.0413576 0.165058 -0.0231499)
(0.00177064 0.0778803 -0.0410576)
(-0.0752064 0.0930825 -0.0956035)
(0.0468615 0.0773012 -0.0277415)
(-0.00339745 0.050808 -0.0278593)
(-0.0201644 0.0543276 -0.0888017)
(0.0677728 0.0338708 -0.0746661)
(0.0105123 0.0227186 -0.11391)
(0.127944 -0.0353144 -0.149814)
(0.0349585 0.0387316 -0.060477)
(0.0308695 0.0172276 -0.126398)
(0.0339441 0.0137484 -0.163509)
(0.0360639 0.0227788 -0.126047)
(0.0410843 -0.00521277 -0.14145)
(0.0124634 0.000583502 -0.0991166)
(0.00594946 -0.00585927 -0.0978437)
(0.0285288 -0.000182538 -0.119247)
(0.0704377 -3.58181e-05 -0.0751654)
(0.0622419 0.0044818 0.0286979)
(0.00664265 0.0329171 -0.161957)
(0.0257027 -0.00245896 -0.105939)
(-0.0033847 0.00204349 -0.0172467)
(0.0192386 0.0457174 -0.0847815)
(0.0351659 0.00665981 -0.1382)
(0.0256774 -0.0135793 -0.121707)
(0.0378074 0.000311843 -0.0997754)
(0.0413085 0.00890883 -0.0850707)
(0.0165224 0.0227723 -0.0137737)
(-0.0226359 0.0464378 -0.0425213)
(0.000747952 0.0514814 -0.142252)
(-0.00138195 0.0272076 -0.141747)
(0.0199417 0.0135407 -0.0955756)
(0.0390393 0.0251843 -0.126071)
(0.0385949 -0.00630293 -0.148145)
(0.0387842 -0.0149774 -0.130161)
(0.0372913 -0.00538816 -0.118154)
(0.0246938 0.0215099 -0.126774)
(-0.00191575 0.0328384 -0.0874679)
(-0.0195709 0.0534156 -0.113435)
(-0.0556026 0.0586884 -0.0142955)
(0.0108932 0.0372239 -0.0597272)
(0.0242274 0.0302556 -0.129058)
(0.0383681 0.00292269 -0.135705)
(0.0350771 -0.00410714 -0.130699)
(0.0401501 -0.00308789 -0.139863)
(0.0336192 0.00337829 -0.160319)
(0.0356708 0.00851072 -0.161693)
(0.0385213 0.00708062 -0.150555)
(0.0395132 0.00245228 -0.140381)
(0.0346532 0.00309024 -0.141634)
(0.0333853 0.00875396 -0.150284)
(0.02744 0.0181237 -0.124379)
(0.0295641 0.00598472 -0.113663)
(0.0322842 -0.000838498 -0.141206)
(0.0287053 -0.00358665 -0.138101)
(0.0348519 -0.00514064 -0.143253)
(0.0311522 -0.000595235 -0.149694)
(0.0268392 0.00247462 -0.165451)
(0.0198217 0.00082841 -0.181333)
(0.0111203 -0.00305289 -0.190247)
(0.00240152 -0.00752322 -0.191797)
(-0.00571293 -0.0127721 -0.189821)
(-0.0150731 -0.014996 -0.181982)
(-0.0242548 -0.0161467 -0.172299)
(-0.0312574 -0.0171815 -0.161275)
(-0.0402735 -0.021467 -0.156197)
(-0.0433399 -0.0208878 -0.144391)
(-0.0488466 -0.0196795 -0.130766)
(-0.0508714 -0.0168002 -0.115477)
(-0.0582938 -0.018449 -0.107898)
(-0.0585394 -0.0139724 -0.0986859)
(-0.0584761 -0.00884465 -0.0837438)
(-0.0621719 -0.0105794 -0.0816704)
(-0.0591001 -0.00801529 -0.0728916)
(-0.0561312 -0.00575196 -0.0632297)
(-0.0562312 -0.00611027 -0.0631185)
(-0.0586769 -0.00375363 -0.0639635)
(-0.0633125 -0.0073245 -0.0710266)
(-0.060616 -0.00849997 -0.0680629)
(-0.0652055 -0.0111078 -0.0687856)
(-0.0649478 -0.0109584 -0.066884)
(-0.0684087 -0.0115659 -0.0692303)
(-0.0706133 -0.012482 -0.0685586)
(-0.0755335 -0.0133518 -0.0712175)
(-0.078377 -0.0155882 -0.0701489)
(-0.0804011 -0.0144738 -0.0699971)
(-0.0840436 -0.0154508 -0.0682816)
(-0.0859274 -0.0137454 -0.0690406)
(-0.0891085 -0.00937083 -0.0698727)
(-0.0945823 -0.00908816 -0.0685721)
(-0.0961144 -0.00737676 -0.0703357)
(-0.0966779 -0.00255855 -0.0707844)
(-0.0993268 -0.00210225 -0.067601)
(-0.100591 0.000736132 -0.0683481)
(-0.0972635 0.00746222 -0.0655444)
(-0.100215 0.00954593 -0.0646247)
(-0.10023 0.0134484 -0.0648707)
(-0.0973358 0.0188448 -0.0642261)
(-0.0895416 0.0147536 -0.0628926)
(-0.0823648 0.0150758 -0.0610381)
(-0.0805829 0.0142413 -0.0569077)
(-0.0730186 0.00662824 -0.0576868)
(-0.0690863 -0.00701437 -0.0535602)
(-0.072622 -0.0123395 -0.055577)
(-0.0726246 -0.0210912 -0.055761)
(-0.0811165 -0.0298916 -0.0543721)
(-0.0836948 -0.0302178 -0.0590907)
(-0.0935495 -0.0362021 -0.0615682)
(-0.10394 -0.0360505 -0.0666941)
(-0.115377 -0.0445968 -0.0621229)
(-0.125754 -0.0485988 -0.0668659)
(-0.129502 -0.0352805 -0.0742728)
(-0.160061 -0.0345788 -0.0703457)
(-0.158143 -0.0288719 -0.0810202)
(-0.181865 -0.0191139 -0.0746362)
(-0.177668 -0.0143412 -0.0855219)
(-0.192963 0.00555124 -0.0782248)
(-0.187094 0.00617822 -0.0883638)
(-0.185464 0.0332905 -0.0888121)
(-0.205024 0.0492898 -0.0996412)
(-0.198542 0.0569497 -0.106415)
(-0.194737 0.0821779 -0.109391)
(0.0483742 -0.125434 -0.133352)
(0.101746 0.0205809 -0.0042376)
(-0.106736 0.122569 -0.0285144)
(0.0202521 0.0926807 -0.103823)
(0.00817409 0.0336729 -0.0596365)
(-0.0355783 -0.00944581 -0.0859547)
(-0.0495801 0.00896271 -0.0564016)
(-0.0125553 -0.00410992 -0.0574941)
(0.010471 -0.0429333 -0.0832268)
(-0.0590939 0.0291053 -0.0543103)
(-0.0562081 0.0307779 -0.0626497)
(0.0629637 -0.0176583 -0.10143)
(0.0165528 -0.000467308 -0.0700253)
(0.0135919 0.0647277 -0.102393)
(-0.0376473 0.0636033 -0.105589)
(-0.0478237 0.029232 -0.0994262)
(-0.0407558 0.0121725 -0.0725295)
(0.020878 0.0334811 -0.119238)
(-0.0437602 0.0175248 -0.0645585)
(-0.0262044 0.0417395 -0.0801628)
(0.00875361 0.0955009 -0.0670111)
(-0.00856609 0.0278397 -0.0268923)
(-0.00278171 -0.000110246 0.0243104)
(-0.0251365 0.0181458 0.0170063)
(0.020842 0.0335378 -0.0328223)
(0.100753 0.0570686 -0.143876)
(-0.0180713 0.113705 -0.161624)
(0.0319602 0.0703372 -0.177566)
(-0.071452 -0.021299 -0.155254)
(-0.059877 0.00461768 -0.0962591)
(-0.0230957 0.047248 -0.0689295)
(-0.0388574 0.0481801 -0.0458906)
(0.0139037 0.0576609 -0.103848)
(0.0155779 0.0538887 -0.0882072)
(-0.0168869 0.0775813 -0.0978624)
(0.017481 0.0232997 -0.0804574)
(0.050298 0.022759 -0.101744)
(0.0547512 0.0474263 -0.10246)
(0.00601601 0.0699718 -0.127165)
(0.213776 0.0910433 -0.138267)
(-0.0697381 -0.076647 -0.0818169)
(0.0219649 0.0510271 -0.0900059)
(0.0366591 0.0296002 -0.0875472)
(0.0637144 0.142209 -0.0791382)
(0.0702706 0.0888727 -0.140092)
(0.0881456 0.0228855 -0.322546)
(0.0910847 0.0159051 -0.386008)
(0.0619818 -0.0700603 -0.158168)
(0.106439 -0.0389071 -0.11289)
(0.0949498 -0.0618524 -0.15856)
(0.0257315 -0.0551587 -0.0893869)
(0.0495759 -0.0422192 -0.0991534)
(0.0680546 -0.017503 -0.19916)
(0.0268057 0.0268544 -0.257874)
(0.0316329 0.00879779 -0.161189)
(0.0377952 -0.0112363 -0.127227)