/*--------------------------------*- C++ -*----------------------------------*\
  =========                 |
  \\      /  F ield         | OpenFOAM: The Open Source CFD Toolbox
   \\    /   O peration     | Website:  https://openfoam.org
    \\  /    A nd           | Version:  7
     \\/     M anipulation  |
\*---------------------------------------------------------------------------*/
FoamFile
{
    version     2.0;
    format      ascii;
    class       surfaceScalarField;
    location    "18.8";
    object      alphaPhi0.water;
}
// * * * * * * * * * * * * * * * * * * * * * * * * * * * * * * * * * * * * * //

dimensions      [0 3 -1 0 0 0 0];

internalField   nonuniform List<scalar> 
42560
(
-1.14899e-08
3.30792e-08
-2.08584e-07
-3.11186e-10
2.66495e-09
1.58749e-07
-1.35603e-08
-3.76285e-12
1.78524e-10
-9.46312e-15
8.02334e-09
-3.33929e-07
2.92491e-07
-5.00183e-12
5.69781e-09
-9.31646e-14
5.01048e-12
1.30879e-10
-1.18247e-14
-3.59816e-10
1.3618e-09
-1.32466e-11
2.14177e-10
4.87494e-09
-8.30394e-12
1.87182e-08
2.4686e-08
-2.77739e-12
3.28883e-07
-8.19035e-08
2.85107e-08
8.67981e-07
-5.05655e-07
-1.28445e-09
5.06358e-07
-3.9255e-07
1.81726e-07
1.40948e-07
1.17409e-07
2.21427e-08
9.53037e-09
5.39359e-08
7.72756e-09
1.68911e-10
3.29931e-09
-5.61821e-13
2.05902e-12
3.96416e-11
-1.60066e-16
2.35965e-14
4.18094e-13
2.72407e-16
-6.9793e-19
4.6471e-15
-2.6328e-19
-2.936e-20
5.52098e-18
-3.8567e-21
1.11384e-18
1.88114e-17
-6.08384e-21
-7.75707e-19
3.19071e-17
-3.26622e-21
1.97714e-20
5.22931e-18
-4.2132e-24
1.16664e-17
1.50419e-16
-2.01864e-18
-4.17319e-11
3.93422e-11
-7.69327e-16
-3.6849e-10
3.11607e-10
-2.55624e-16
-1.2147e-08
1.10946e-08
2.28848e-10
-1.86202e-07
1.56393e-07
1.39189e-08
-3.96776e-07
1.05394e-07
9.78726e-08
-6.97837e-07
-8.26193e-08
6.60951e-08
-1.0989e-06
-9.10664e-08
-3.86434e-09
-2.10251e-06
-9.37632e-08
1.0028e-07
-2.77991e-06
-2.13297e-07
-9.94838e-09
-3.30693e-06
-4.54631e-07
-9.52593e-08
-4.25243e-06
-1.88212e-07
-1.38772e-08
-7.3243e-06
7.12475e-07
1.08903e-06
-9.33417e-06
7.47555e-07
-1.16743e-08
-1.25428e-05
-4.52374e-07
-4.6536e-07
-1.8402e-05
-2.01525e-06
-2.50126e-06
-3.23753e-05
-4.55417e-06
-3.08995e-06
-8.14574e-05
-1.26145e-05
8.4759e-06
-0.000113622
-3.65625e-05
-1.05495e-05
-0.000186316
-6.42459e-05
-1.30616e-05
-0.000444204
-0.000142723
4.09093e-05
-0.000611396
-0.000337019
-4.75842e-05
-0.00104265
-0.000635131
-8.08386e-05
-0.00219526
-0.00142827
-8.40216e-06
-0.00193701
-0.0035664
-0.0008858
-0.00293191
-0.00445176
-0.000645755
-0.00504078
-0.00905116
-0.00154585
-0.0042846
-0.0164319
-0.00303879
-0.00328088
-0.0239673
-0.00396271
0.0010519
-0.0293592
-0.00616596
0.0045593
-0.0302367
-0.00558977
0.00493912
-0.0264927
-0.00383386
0.00465913
-0.0173583
-0.00332425
0.00150178
-0.00929744
-0.000275095
0.000693491
-0.0071872
0.000118841
0.00366967
-0.0187652
-0.000821845
0.000714352
-0.0108622
-0.000104377
-0.00279169
-0.00971694
4.99913e-05
0.000580149
-0.0183609
-0.000920742
-0.000931667
-0.0174467
-0.000786499
-0.00175437
-0.0146161
-0.000223745
0.00262246
-0.0183764
-0.00141853
0.000863405
-0.015148
-0.000693894
9.86137e-05
-0.0110546
-0.000160438
0.000848083
-0.00842122
-0.000655285
0.00135929
-0.00569954
-0.000504014
0.00111561
-0.00308644
-0.000299972
0.000399178
-0.000958024
1.9239e-05
0.000160045
-0.000381249
-5.04933e-05
6.84945e-05
-0.000174014
-1.55006e-05
-5.91813e-08
-7.30248e-05
1.51479e-05
-0.000126253
-0.000110773
5.83468e-06
-0.000368703
-0.000243406
2.08004e-05
-0.000512296
-0.00079947
-9.1885e-05
-0.000279389
-0.00154148
-0.000160135
-0.000180945
-0.0026134
-0.00017984
-0.000951925
-0.00269361
-0.000278859
-0.00308125
-0.00952646
-0.000403168
0.000995927
-0.0137506
-0.0017228
-0.00566116
-0.013305
-0.000866839
-0.00677393
-0.026877
-0.00136349
0.000138964
-0.0402926
-0.00385753
-0.000104934
-0.0309249
-0.000153262
-0.00648122
-0.035757
-0.00198164
0.00497958
-0.0479702
-0.00408072
0.00165614
-0.0310375
-0.000478719
-0.000262783
-0.0350353
-0.00250721
-0.000422469
-0.0373638
-0.00286089
-0.000650516
-0.0398273
-0.00315078
-0.000346402
-0.0392441
-0.00302177
0.000123519
-0.0391519
-0.00303137
-0.000190265
-0.0399798
-0.00302925
0.000212956
-0.0371663
-0.00282257
-0.00203534
-0.0350805
-0.00252306
-0.00393133
-0.030577
-0.000405058
0.00482408
-0.0455425
-0.0035547
0.00113353
-0.0338539
-0.00157652
-0.00217193
-0.0291553
2.6793e-05
0.0057172
-0.034451
-0.00229781
0.0020529
-0.0240335
-0.000614778
0.00069176
-0.0171165
-0.000193945
0.00214983
-0.013127
-0.000973447
0.000395761
-0.00678187
-5.6804e-05
-0.000222382
-0.00426844
4.00648e-05
4.9124e-05
-0.00454419
-0.000157751
0.000401132
-0.00308941
-0.000191318
0.000310286
-0.00156202
-0.000109738
-1.14257e-06
2.98055e-05
-0.000468346
-0.000359642
1.63829e-05
-0.000304091
-0.000637146
-2.55248e-05
-0.000818947
-0.000855319
-0.00011959
-0.00149517
-0.00209726
-0.000223004
-0.00222612
-0.00441861
-5.93526e-05
-0.00437303
-0.00324115
-0.00120144
-0.0127102
0.00129482
-0.00140786
-0.0182909
0.00167697
-0.000944958
-0.0163692
0.000307043
-0.000479425
-0.0107677
-0.00189017
-0.000940919
-0.0155981
0.000848806
-0.000799643
-0.0104372
-0.000154533
3.96463e-05
-0.00250747
-0.000858368
-5.33651e-05
-0.00500669
0.000587713
-0.000205081
-0.0114941
6.26921e-05
0.000156738
-0.00316819
-0.00156348
0.000125465
-0.00543889
0.000996555
-0.000492001
-0.0120561
6.81719e-05
0.000445344
-0.0099141
-0.000773338
5.29888e-05
-0.0107934
-0.00105563
-4.34388e-05
-0.0123557
-0.00127754
-0.000205056
-0.0134694
-0.00127181
-0.000125447
-0.0147004
-0.00132262
-0.000240757
-0.0152502
-0.00121823
-0.000412514
-0.0164905
-0.00166354
-0.000388991
-0.0161226
-0.00286158
-0.000172511
-0.0161666
-0.00415928
0.000269583
-0.00990601
0.000364326
-0.000908361
-0.0208904
-0.000530478
-0.0015837
-0.0204329
-0.00180177
-0.000589961
-0.0180725
0.00318997
-0.00249048
-0.0211021
0.00165219
-0.000995294
-0.0117981
0.000651335
-0.000651122
-0.00532198
0.00176701
-0.00101904
-0.00614884
0.00073656
-0.00012198
-0.00294541
0.000408885
-0.000141455
-0.00110357
0.000248047
-7.62537e-05
-0.000517562
0.000169043
-4.25548e-05
-0.000227907
0.000122482
-2.63085e-05
-9.4657e-05
5.59485e-05
1.13494e-05
-3.21018e-05
1.75809e-05
-5.37623e-07
-1.79605e-05
-6.34242e-06
5.57901e-06
-1.98264e-05
-1.35498e-05
-9.30841e-06
-1.80722e-05
-4.68977e-05
-2.92469e-05
-2.31042e-05
-0.000188386
-6.49366e-05
-9.38966e-05
-1.72973e-05
-0.00066521
-0.000475623
9.85994e-05
-0.000349242
-0.000224121
3.56046e-05
-6.50042e-05
-6.18265e-05
1.06366e-05
-2.02243e-05
-1.26142e-05
8.40437e-06
-1.74534e-05
-2.91787e-06
4.47172e-06
-1.22528e-07
4.36761e-06
1.59979e-06
5.76524e-07
2.08867e-06
4.65057e-08
1.2045e-06
8.519e-09
1.50472e-09
3.76991e-08
2.02662e-07
3.81613e-07
-1.52798e-06
-1.0531e-09
1.39661e-06
2.67357e-05
-4.62421e-05
-1.31458e-06
9.40613e-06
6.66341e-06
1.46185e-06
-3.96153e-05
-5.21625e-06
-8.47192e-05
-0.000182407
-0.00011801
4.11267e-05
-0.00105919
-0.000814276
5.82338e-05
-0.00148267
-0.00163188
0.000215963
-5.69212e-05
-0.000475229
-0.000462785
4.23386e-05
-3.59459e-05
-1.66374e-05
-1.50519e-05
-9.34308e-06
-3.6202e-05
-9.76455e-06
-1.15373e-05
6.20726e-06
-4.43141e-06
-1.2428e-05
-8.70181e-07
-1.97032e-06
-4.73987e-08
-8.27486e-06
-1.25585e-07
1.10295e-06
5.23924e-06
-1.72818e-05
-2.78443e-05
-6.226e-06
-2.44723e-05
-4.37084e-05
-6.64196e-05
-1.0892e-06
-9.30941e-05
-0.000185417
-0.0002011
-0.000148468
-0.000430272
-0.00026038
-0.000171086
-0.000305168
-3.32312e-05
-0.000718772
0.000347686
-0.000889961
-0.00279564
-0.000533293
-0.00120225
-0.00248675
-0.00131245
0.000100819
-0.00121473
-0.000571069
-0.0057426
0.00182957
-0.00166939
-0.0116874
0.000259718
-0.00352131
-0.00235376
-0.00410265
0.000399066
-0.00105083
-0.00148107
-0.00884292
0.00180347
-0.000777724
-0.0111578
0.00116862
-0.0028867
0.000142383
-0.00278838
0.00144922
-0.000529158
-0.00128933
-0.00787815
0.000590434
-0.00293487
-0.000114767
-0.00245769
0.000943282
-0.000420186
-0.00087855
-0.00606808
0.000425793
-0.00248863
3.21081e-05
-0.00228947
0.000687492
-0.000310241
-0.000585508
-0.0047689
0.000249395
-0.00189012
-3.32562e-05
-0.00179359
0.000323859
-0.000259029
-0.000408279
-0.00397921
-1.66619e-06
-0.00161837
-0.000181713
-0.00130071
0.000229877
-0.000320151
-0.00433671
0.000530775
-0.000222455
-0.000289263
-0.00285321
5.70697e-05
-0.00131643
-3.67162e-05
-0.00102886
0.000192636
-0.000179419
-0.00381189
0.000658579
-0.000328777
-0.000245822
-0.00319399
1.32243e-05
-0.00127447
-0.000563897
-0.000961426
0.00019667
-0.00054344
-0.00566562
0.0014647
-0.000556243
-0.000677836
-0.00395426
-2.98358e-05
-0.00176017
-0.00112074
-0.00123581
-5.52524e-05
-0.00108738
-0.00623664
0.000400126
-0.000962663
-0.00512318
0.000498841
-0.000686344
-0.00330318
0.000495727
2.29274e-05
-0.00012701
-0.000697732
0.000360016
-0.000286553
7.7084e-05
-0.000244217
9.72248e-05
-9.50648e-05
-0.000331247
0.000136343
-3.52187e-06
-0.000379493
6.35174e-05
-8.33307e-05
1.19724e-05
-8.29783e-05
-4.00454e-05
1.48542e-05
-1.95001e-05
-0.000225151
-1.76939e-05
1.68691e-06
-0.000182989
-2.87872e-05
-0.000199316
-1.30641e-05
-1.48399e-07
3.44808e-06
-4.847e-05
-5.90934e-05
-4.05013e-05
-0.000206084
8.37905e-06
-0.000624024
-0.000975
0.000154321
-0.000792591
-0.00197075
-0.000780127
-0.00327517
0.000175471
-0.000544932
-8.62506e-05
-0.00120351
0.000171118
-0.000405438
-0.00156714
-0.00030052
-0.0023693
0.000100049
-0.000205002
-0.000111178
-0.000576463
8.98767e-05
-0.000196328
-0.000906949
-0.000229851
-0.00177661
0.000121032
-0.000187356
-7.63783e-05
-0.0005311
0.000117876
-0.000239865
-0.00115727
-0.000283343
-0.00242371
0.000158448
-0.000231502
-0.000159248
-0.000912199
-0.000305311
-0.00280658
0.000241583
-0.000283778
-0.000190858
-0.00105794
-0.000402439
-0.00335966
0.000338228
-0.000371622
-0.00028608
-0.00138656
-0.000540117
-0.00442448
0.000535827
-0.000550618
-0.000424694
-0.00196534
-0.000801589
-0.00593161
-0.000726664
-0.000804444
-0.00342672
-0.00064598
-0.000701196
-0.00130049
0.000375006
-0.000674283
-0.000482609
-0.000763195
-0.000406128
-0.000757049
0.000334009
-0.000320919
-0.000502976
-0.000452063
-0.000222128
-0.000484095
0.000195724
-0.000215546
-0.000220518
-0.000240121
-0.000146854
-0.000386736
0.000203255
-0.000118918
-0.000217674
-0.000183415
-0.000124866
-0.000384309
-0.000108826
-0.000159972
-0.000156515
8.14822e-05
-0.000142508
-0.000139491
0.000156565
0.000160112
-0.000798021
-0.00018961
-0.000132925
0.000224021
-0.000429072
-0.000118138
-0.0013613
-0.000359247
-0.000380507
0.000746597
-0.0012154
-0.000648156
-0.0034816
0.00092292
-0.000690576
-0.00121717
0.00108677
-0.00107176
-0.00140557
0.00121545
-0.000798925
-0.00225868
-0.000797265
-0.00554759
-0.00137717
-0.000628614
-0.00251808
-0.00152255
-0.00084166
-0.00187187
0.00106458
-0.00148384
-0.00209449
-0.00839856
0.00111817
-0.000979081
-0.00192522
0.000843063
-0.000519269
-0.00166173
-0.000202466
-0.0019886
-0.000465717
-0.000102935
-0.000662336
-0.000825739
-0.000294307
-0.000997496
-0.00119234
-0.000534549
-0.00112782
0.000690643
-0.000362454
-0.00133784
-0.00360748
0.000387085
-8.90541e-05
-0.000592656
0.000198067
-0.000107648
-0.00035258
0.000107542
-4.45841e-05
-0.000234226
-7.38505e-06
-0.000171319
-6.11051e-05
-2.41321e-07
-3.1152e-05
-8.77438e-05
-2.54186e-05
-4.42201e-05
6.15387e-05
3.3564e-05
-0.000296661
-0.000190316
3.46624e-05
-8.78141e-08
-4.3333e-06
2.36174e-06
1.05718e-06
-6.45615e-08
4.1356e-08
2.18812e-06
-2.1091e-06
3.71013e-08
1.87889e-06
1.49116e-06
3.05969e-06
-3.78459e-06
2.92258e-05
-1.44899e-07
2.5618e-07
1.36868e-06
-1.79659e-06
1.94882e-07
1.51455e-06
1.07253e-06
4.5318e-06
-0.000131769
-6.44113e-05
-0.000334472
8.89997e-05
-0.00023093
-0.000558999
0.000191069
-0.000784113
0.00105663
0.000284687
-0.00344448
-0.0051725
0.000822487
0.000250955
-0.00135558
0.000113339
-0.000838342
-0.00312603
2.02083e-05
-0.00389115
-0.0035783
8.88394e-05
-0.00968016
0.00317894
-0.000252952
-0.000247345
-0.023917
-0.0575208
0.00253189
-0.000152082
-0.00685266
8.03401e-05
-0.00245634
-0.000387335
-0.000301188
-0.000645288
7.86734e-07
-0.000975693
-0.000211479
-1.55685e-06
-0.00216702
-7.73066e-05
-1.08169e-05
-0.000699366
2.24993e-05
-2.79168e-10
2.91806e-05
-0.000140799
-0.000137299
9.87152e-06
-5.7019e-11
3.05187e-06
3.20883e-06
-2.93344e-12
5.4814e-06
1.29322e-08
2.3937e-06
-5.88149e-12
-1.91463e-10
8.5103e-09
-2.64216e-11
-1.56701e-13
2.45956e-11
-1.49381e-10
-3.54912e-12
8.72258e-11
6.62911e-11
-1.84268e-12
-4.00726e-10
3.23121e-11
1.09644e-12
5.84444e-12
-2.42508e-14
5.94155e-11
6.07508e-13
2.91956e-15
5.09517e-12
1.30466e-09
2.34664e-08
5.77885e-09
-5.09636e-12
1.9448e-09
4.37467e-07
-5.93799e-07
3.71264e-07
8.16976e-08
-2.73418e-07
-2.15244e-06
-4.89008e-06
7.78792e-06
2.08021e-06
-1.74637e-07
-1.38493e-06
8.07224e-07
-3.55986e-07
-4.98797e-08
-3.82428e-08
2.19366e-07
-4.62852e-08
-4.82182e-09
1.27263e-09
1.29664e-08
-1.63422e-09
-8.65767e-10
3.21282e-10
3.33752e-10
-4.16586e-10
2.31594e-08
8.63422e-10
1.36989e-08
3.32597e-08
2.17506e-09
2.89815e-07
-8.38997e-08
2.39542e-09
1.04143e-06
-4.24508e-07
1.27141e-07
1.21871e-06
-3.83509e-07
-7.63814e-08
7.56068e-07
-7.43212e-08
3.4843e-07
1.91564e-07
2.34609e-07
5.58729e-09
6.28267e-09
8.73751e-08
1.39478e-08
1.07345e-11
2.61007e-09
3.90759e-10
1.61116e-13
9.19505e-12
1.00478e-12
5.45661e-15
1.02551e-13
8.20162e-15
-1.89732e-17
1.94906e-15
1.06613e-16
1.05137e-18
3.58717e-16
3.07289e-17
7.85022e-17
1.5138e-15
1.27385e-16
-2.01697e-14
8.12328e-14
4.18834e-15
1.41832e-15
3.40689e-13
3.03976e-14
3.82559e-16
3.79525e-15
3.48096e-16
-5.55621e-12
3.47044e-11
2.77854e-12
1.15986e-11
2.4973e-10
2.94701e-11
1.7988e-09
8.27915e-09
5.56051e-10
1.14014e-08
1.18675e-07
1.75322e-08
1.2103e-07
-2.80132e-08
1.59302e-08
1.10014e-07
-6.76736e-08
-1.83118e-09
1.81447e-08
2.73997e-09
1.22518e-09
-5.9979e-08
4.12331e-09
-1.93315e-08
-3.31274e-07
8.62759e-09
-7.48603e-10
-8.6385e-07
-3.55506e-08
6.0291e-08
-8.81656e-07
-1.20071e-08
-1.58399e-07
-8.29586e-07
4.50746e-07
1.76031e-07
-2.14313e-07
8.86145e-08
-8.97466e-09
-7.19135e-07
2.66739e-07
-2.30453e-07
-2.16861e-06
1.19511e-07
-7.00043e-07
-5.81763e-06
-2.96901e-07
-6.61056e-07
-1.8919e-05
-8.15941e-07
1.14328e-06
-4.0185e-05
-1.15787e-05
-3.94549e-06
-7.49455e-05
-2.02358e-05
-9.44942e-06
-0.00019129
-3.90912e-05
1.22721e-05
-0.000325318
-0.000165002
-3.70421e-05
-0.000544175
-0.000300918
-0.000107838
-0.00130304
-0.000643134
1.54613e-06
-0.00123129
-0.00248265
-0.00108687
-0.00196305
-0.00288994
-0.000870359
-0.00415479
-0.00558039
-0.00143822
-0.00398573
-0.0119167
-0.00504254
-0.00405064
-0.0183756
-0.00572193
0.000777947
-0.0255114
-0.00868386
0.00535865
-0.0263473
-0.00847335
0.0041975
-0.0198138
-0.00616403
0.00348396
-0.0107751
-0.0063243
0.00102856
-0.00675453
-0.000109867
3.17506e-05
-0.00560537
-0.000531069
0.00329868
-0.0199305
-0.00257712
-0.000155514
-0.00774514
-0.000293528
-0.00205157
-0.00733624
-0.000319407
-0.000125637
-0.0177343
-0.00254292
-0.00091615
-0.014559
-0.00221281
-0.00233335
-0.0115981
-0.00159372
0.00216352
-0.0200899
-0.00295455
0.000691417
-0.0119626
-0.0011111
-0.000301387
-0.0085623
-0.000900288
0.00106861
-0.0094419
-0.00170274
0.00151227
-0.00478769
-0.000997103
0.00101122
-0.00212826
-0.000469057
0.000152368
-0.000167964
2.09772e-05
0.000114018
-0.000303018
-6.74145e-05
2.99351e-05
-9.92704e-05
-8.07474e-06
-1.01624e-05
-3.86634e-05
8.37485e-06
-2.71209e-05
-7.1708e-05
-1.16806e-05
-0.000200801
-5.44716e-05
3.70651e-06
-0.000263278
-0.000537613
-0.000134469
-0.000128143
-0.00111581
-0.00030813
-7.13098e-05
-0.00170889
-0.000427468
-0.000487946
-0.0018714
-0.000518403
-0.00393626
-0.00574168
-0.000988745
0.000697123
-0.0146901
-0.00443012
-0.00152634
-0.00877195
-0.00300323
-0.00772255
-0.0190429
-0.0024
0.00245414
-0.0429938
-0.00863228
-0.000145735
-0.0265338
-0.00245081
-0.00304253
-0.0291314
-0.00397037
0.00525957
-0.0476154
-0.00888719
0.00164369
-0.0249655
-0.00245632
9.66833e-05
-0.0287404
-0.00474807
-0.000733189
-0.0311292
-0.00540501
-0.000670463
-0.0341378
-0.00575233
-0.000302945
-0.0339053
-0.00570665
-1.93011e-06
-0.0338525
-0.00560052
0.00023437
-0.0344981
-0.00571829
-0.000437375
-0.0312462
-0.00524846
-0.00173647
-0.029048
-0.00473365
-0.00498096
-0.024935
-0.00239759
0.0027007
-0.0449282
-0.00791547
0.000297857
-0.0277361
-0.00343153
-0.00265152
-0.0235654
-0.00193591
0.00465486
-0.0340987
-0.00509843
0.00166192
-0.0175902
-0.00138544
0.000367814
-0.0134403
-0.00147275
0.00222226
-0.0134941
-0.00218174
0.000396635
-0.00618887
-0.000157556
-0.000615864
-0.00448176
-0.000313916
-9.4717e-05
-0.00427085
-0.000499625
0.000422647
-0.00280796
-0.000397467
0.000332236
-0.00121444
-0.000216843
-2.4975e-06
-0.000101143
2.86334e-07
-0.00016248
-7.69514e-05
-1.46628e-06
-0.000365971
-3.1168e-05
-0.000378516
-0.000525917
-0.000148306
-0.000817524
-0.000572456
-0.00150807
-0.000336947
-0.00331878
-0.00105429
-1.70048e-05
-0.0026836
-0.0100182
-0.002206
0.000979051
-0.0157681
-0.00291351
0.00139673
-0.0149041
-0.00270205
0.000465711
-0.00873406
-0.00207174
-0.00132699
-0.0133597
-0.00193852
0.00107669
-0.0121914
-0.00235746
0.00011356
-0.00307085
-0.000591558
-0.000496607
-0.00503568
-0.000768323
0.000777091
-0.00851695
-0.00108966
-4.75466e-05
-0.0027205
-0.000193161
-0.00123446
-0.0031496
-0.000129687
0.00120828
-0.0102288
-0.00135633
0.000122344
-0.00576048
-0.000219926
-0.000668691
-0.00679844
-0.000474365
-0.00106497
-0.00817723
-0.000898191
-0.00126173
-0.00979307
-0.00060788
-0.00093557
-0.0108809
-0.00122062
-0.00136567
-0.0109149
-0.000669951
-0.000695719
-0.0137699
-0.0017212
-0.00152822
-0.0123014
-0.00117239
-0.00140735
-0.00922987
-0.00181138
-0.00308469
-0.00739971
-3.81571e-05
-0.00110931
-0.018558
-0.00369673
-0.000916082
-0.0169322
-0.00366187
-0.00215046
-0.0148397
-0.00207471
0.00380773
-0.0254849
-0.00560197
0.00157985
-0.0122144
-0.00256811
0.000794669
-0.00664405
-0.00164684
0.00222998
-0.00630981
-0.00190134
0.000712404
-0.00178165
-0.000138546
0.000302772
-0.000665316
-0.000201054
0.000168817
-0.000350987
-0.000115755
9.43597e-05
-0.000128938
-5.79233e-05
5.43124e-05
-3.52741e-05
-2.5114e-05
1.46949e-05
5.06964e-06
4.55117e-06
7.13868e-06
7.28653e-10
-1.00333e-05
-1.05984e-05
-5.34179e-06
3.64813e-06
-1.32387e-05
-1.49616e-05
9.43564e-07
-1.35804e-05
-1.51746e-05
-7.5823e-06
-0.000100123
-5.19726e-06
-1.16179e-05
2.6781e-05
-0.000286461
-0.000359339
4.69086e-05
-9.72113e-05
-0.000164424
1.4772e-05
-1.29035e-05
-2.29042e-05
7.39067e-06
-5.06167e-06
-1.3797e-06
6.64534e-06
-7.69927e-07
-1.18557e-06
6.59876e-06
3.80439e-06
1.03999e-06
3.87877e-06
3.9585e-06
1.34058e-06
1.15948e-06
3.46772e-06
2.0146e-07
7.31528e-09
1.0598e-06
1.52558e-08
1.33182e-09
1.19947e-08
7.9016e-09
-1.14244e-06
5.9216e-07
3.66924e-06
-2.49358e-06
9.3777e-07
4.64099e-06
-3.49543e-06
-2.30077e-06
2.38732e-06
-2.38421e-06
-2.80263e-06
7.56828e-06
2.47186e-06
8.60015e-06
-4.17341e-07
-4.53217e-06
6.21775e-06
1.1363e-06
-9.16171e-08
-1.97253e-06
3.13033e-07
-1.52435e-07
-2.94963e-06
1.27937e-06
1.13503e-06
-1.20838e-06
-1.57026e-06
-1.29988e-07
9.82697e-07
-7.37861e-07
7.27539e-07
-1.5195e-07
8.36286e-08
5.65002e-07
-4.1847e-07
-2.337e-07
3.10938e-07
-1.56445e-08
-7.57335e-08
-1.53975e-07
7.0968e-07
-3.8055e-10
-2.62102e-07
2.0147e-07
-7.80835e-08
2.87883e-08
4.19375e-08
-8.59938e-08
-8.32883e-08
-5.58304e-09
-4.74909e-09
-9.33616e-09
-8.65823e-09
6.60606e-08
1.41131e-08
-1.94008e-10
1.87263e-08
3.73572e-09
-6.18853e-13
2.84145e-10
8.21027e-11
-1.2559e-15
1.12211e-12
3.65e-13
8.0143e-16
2.29975e-14
7.03602e-15
-4.9213e-16
2.1711e-14
6.32612e-15
-1.76079e-16
5.39183e-15
1.67957e-15
2.43289e-15
2.21078e-14
7.2911e-15
-2.59417e-13
1.23418e-12
3.56472e-13
1.52405e-15
2.69801e-12
7.93846e-13
2.18799e-15
1.1358e-14
3.64655e-15
3.76812e-13
2.05381e-11
5.97302e-12
1.58619e-11
1.68879e-10
4.91958e-11
3.23686e-09
3.60004e-09
1.04544e-09
5.3418e-08
4.46688e-08
1.28393e-08
6.19406e-08
-9.75276e-10
-7.66426e-09
7.97141e-09
-5.09472e-10
-6.30201e-09
-2.53097e-08
1.43697e-08
2.09404e-08
-4.69113e-10
3.37001e-08
-5.39326e-08
2.46827e-08
4.56882e-08
-2.2287e-08
5.27987e-08
-2.25316e-09
-2.15316e-08
2.18887e-08
-2.99187e-08
1.79211e-08
-1.89393e-07
2.32933e-07
-7.45606e-08
3.30893e-08
1.8762e-07
3.71282e-08
3.72935e-07
5.05051e-08
-2.02746e-08
3.90165e-07
7.96631e-08
-8.42286e-09
6.99468e-07
8.92845e-08
-1.521e-07
9.5828e-07
9.91215e-08
-2.62386e-07
4.87234e-07
-1.29826e-08
1.87127e-07
1.00057e-07
-6.48962e-07
2.20198e-07
-1.07769e-05
-9.70567e-07
1.68056e-07
-2.06761e-05
-4.97132e-06
-5.45678e-06
-7.49947e-05
4.40175e-06
1.0706e-05
-0.000139354
-7.00477e-05
-2.99659e-05
-0.000209746
-0.000141757
-8.43727e-05
-0.000821567
-1.28221e-05
-7.87551e-06
-0.000853669
-0.00122573
-0.00120845
-0.000795069
-0.00165551
-0.00135644
-0.0033558
-0.00191449
-0.00123507
-0.00204972
-0.00785777
-0.00552456
-0.00447301
-0.0100378
-0.0059367
0.000542611
-0.0202951
-0.0102353
0.00590067
-0.0210037
-0.0107094
0.00216173
-0.0129938
-0.0039246
0.00285748
-0.00885341
-0.00349987
0.000652483
-0.00334841
-0.00115069
-0.00077284
-0.00301852
-0.0012014
0.00178479
-0.0166672
-0.0052995
-0.000624144
-0.0054387
-0.000780452
0.00302971
-0.00310372
-0.000141089
-0.00335717
-0.000545158
-0.000546494
-0.0150535
-0.00565469
-0.000512118
-0.0108787
-0.00371477
-0.00206671
-0.00728852
-0.00283309
0.00194277
-0.017843
-0.00624462
0.000262572
-0.00747395
-0.00216531
-0.000512938
-0.00553478
-0.00201051
0.000528358
-0.0073178
-0.00338909
0.00071804
-0.00274442
-0.00124633
0.000309164
-0.00109928
-0.000463745
0.000550441
0.000169441
-0.000324286
-6.97542e-05
4.85742e-06
6.40433e-05
8.64003e-05
3.11884e-05
5.26959e-05
1.59003e-05
-2.26886e-05
-1.11494e-05
-1.58815e-05
-9.11487e-06
4.14909e-06
-2.7242e-05
8.87259e-06
7.65237e-07
7.49496e-06
0.000126415
-0.000106096
-2.98729e-05
-2.59381e-05
1.93897e-05
3.95356e-06
7.21576e-07
1.07604e-05
4.96361e-06
-6.83243e-06
1.94634e-06
1.02642e-05
-6.72693e-07
1.8439e-05
-2.42881e-05
-5.79287e-09
2.18816e-05
2.35145e-06
-5.20725e-06
2.53448e-05
-2.88324e-05
5.17197e-06
-1.66517e-05
1.99708e-05
-5.86033e-05
-1.98929e-05
1.63722e-05
-8.76466e-07
-4.97754e-05
-9.12004e-07
7.9721e-06
-6.56661e-07
-9.73931e-06
9.28692e-07
3.29761e-06
1.6598e-07
3.03004e-06
1.42276e-06
1.23609e-07
1.09325e-06
1.80481e-07
1.89729e-06
2.30671e-07
3.95014e-09
5.08643e-08
4.70379e-09
7.842e-08
8.40395e-11
1.24937e-09
-1.85368e-14
3.04115e-09
6.2296e-15
2.46479e-11
-1.39099e-16
5.89986e-11
-3.83112e-17
3.02193e-16
1.90715e-16
5.81447e-15
-3.90153e-15
-6.68987e-17
4.6171e-17
3.88046e-15
-1.75978e-14
3.61349e-15
3.6631e-15
4.26742e-15
-8.53917e-14
8.19252e-14
2.2036e-13
1.73602e-13
1.55477e-13
1.39152e-13
-6.92503e-12
5.98952e-12
1.52067e-08
3.33478e-08
-2.24259e-06
2.21065e-06
8.64414e-07
1.25636e-07
-9.61515e-06
9.1023e-06
5.6022e-08
1.08711e-08
2.66128e-08
7.48263e-07
5.5479e-06
-5.44021e-05
1.29459e-06
4.86698e-05
-6.99545e-05
4.59478e-06
6.56702e-05
-0.000304334
-0.000429755
0.000234779
-7.19024e-09
-0.000873817
0.000814599
-0.000644335
-0.00209962
-0.000641185
-0.00247836
0.000304306
-0.00033225
-6.56356e-14
-0.000538592
-1.00213e-05
-0.000707466
5.49435e-06
-2.18236e-31
-1.03277e-14
6.28222e-06
-8.68969e-06
-0.000317258
1.95075e-05
-5.40179e-23
-2.04053e-31
7.30866e-06
0.000284536
-0.000227923
0.000302046
-0.00119602
8.88338e-05
-5.81917e-05
0.000271004
-0.000193117
7.24494e-05
-0.000152373
-0.000238207
-0.000190798
-0.0010532
-0.000276242
0.00087856
0.000432155
-0.000594585
-0.0013766
0.000781092
0.00173576
-0.000471376
-0.000284085
0.00137955
-0.00308709
0.00257669
-0.00112447
-0.00673548
0.00193865
-0.00156521
0.00413594
-0.018521
0.00423041
0.00132564
-0.0051482
-0.00165224
-0.00521276
-0.00747312
-0.0104523
-0.00201248
0.0143261
-0.00690434
-0.0116375
-0.00165906
0.0202634
-0.0167014
-0.00924519
-0.00182828
0.0225156
-0.0178269
-0.00827593
-0.000479909
0.0291521
-0.00772478
-0.015963
0.000522587
0.0342163
-0.00917117
-0.0186528
0.00170587
0.0348875
-0.0087038
-0.0149097
0.00255027
0.032865
-0.00974588
-0.0158161
0.0028979
0.0278409
-0.00815238
-0.0114012
0.00241085
0.0324954
-0.00995149
-0.0123374
0.00132266
0.0277106
-0.00864141
-0.00952821
-0.00526372
0.0412052
-0.00809271
-0.00774277
0.00011288
0.0188223
-0.00641788
-0.00692214
-5.12001e-05
0.0137714
-0.00340459
-0.00468691
-0.00263952
0.0145294
-0.00254297
-0.00363993
-0.000239754
0.00334378
-0.0018088
-0.00224221
-0.00026132
0.00193227
-0.000678727
-0.00112435
-0.00025244
0.00063321
-0.000248043
-0.000250808
-6.68619e-05
0.000178252
-0.00034631
-0.000102307
-2.70534e-07
2.76069e-05
-0.000120028
-7.32906e-06
8.83088e-07
-9.58373e-07
5.69934e-08
-2.53774e-07
4.83599e-05
1.6622e-05
-6.74719e-05
-1.18925e-05
0.000381301
0.00122824
-0.00150086
-0.000479426
-0.000111714
0.00363928
-0.00336713
-0.000939331
-1.64409e-06
0.000472404
-0.000573175
-0.000105338
-1.05821e-06
-1.90098e-06
3.42223e-07
1.02964e-06
-1.39193e-06
6.09459e-08
1.08973e-07
3.09855e-08
-1.43356e-06
-3.07448e-07
2.73903e-07
-1.52943e-08
-1.10664e-06
-5.20002e-07
-4.38322e-08
1.40354e-07
-8.90882e-07
-4.11693e-07
-1.27615e-07
2.71097e-07
-4.59988e-07
2.94507e-07
-2.49015e-07
-4.59187e-07
-1.11682e-06
-3.69517e-07
3.46803e-07
6.41066e-07
-7.57666e-07
-1.10315e-07
4.23796e-07
-2.86519e-07
3.01397e-07
-1.79501e-07
-8.69078e-08
5.99397e-08
-2.52163e-07
-3.84141e-09
-2.20329e-07
-4.78578e-08
6.34479e-08
1.22203e-08
-6.03105e-08
8.30124e-09
-4.78324e-08
-4.88452e-09
1.25225e-08
3.37068e-09
-6.8101e-09
1.75598e-09
-1.64851e-09
-4.53157e-13
4.29738e-10
1.29545e-10
-1.20136e-10
1.22479e-13
-1.04104e-12
4.63396e-14
1.01323e-13
-3.60318e-14
-1.13051e-13
8.55363e-13
4.09012e-13
-5.16174e-14
3.85338e-14
-1.78952e-14
1.92211e-12
4.38456e-12
-4.08329e-13
-3.98733e-12
1.03334e-11
5.38399e-12
-7.76649e-13
1.89918e-12
-7.66411e-13
9.51804e-12
1.20169e-11
-2.35282e-12
-2.45049e-09
1.24889e-09
9.95417e-10
-2.28521e-10
1.77711e-09
-7.87653e-10
2.578e-08
3.43085e-08
-1.96341e-08
2.44826e-08
3.89971e-08
-4.6501e-08
1.50307e-08
4.11909e-08
-3.06205e-08
2.60861e-08
2.0144e-08
-8.2857e-09
-4.37428e-08
7.27302e-08
1.09197e-07
-1.15556e-07
9.34517e-08
-9.9321e-08
1.32473e-08
-2.92306e-08
1.29268e-07
3.10916e-07
-3.41251e-07
1.54247e-07
1.45123e-07
-1.06534e-07
1.53413e-07
1.08832e-07
-3.67498e-08
6.72678e-07
4.7699e-07
-9.60982e-07
1.20068e-06
4.93414e-07
-9.41497e-07
4.28899e-07
9.63137e-08
3.45062e-06
-1.39518e-06
1.85185e-06
-3.50869e-06
1.70829e-06
2.11993e-06
-1.43088e-06
-7.08575e-07
1.72489e-06
3.09939e-07
-4.71835e-06
5.65068e-06
-2.32612e-06
-6.83211e-05
-1.37499e-05
1.08025e-05
-0.000253709
3.39104e-05
-0.000116734
3.46091e-05
-0.000303988
6.70217e-05
-0.000130366
-0.00162254
0.000353682
-0.00490174
0.00131119
0.00484386
-0.0012759
-0.0106794
0.00290569
-0.0181908
0.00574044
0.0246921
-0.0208059
-0.0304494
0.0098475
-0.0266205
0.0112463
0.0211275
-0.0360999
-0.0190666
0.0118507
-0.0111016
0.00982728
0.00768812
-0.0141648
-0.00805848
0.00793038
-0.00379503
0.00486892
-0.0134596
-0.0124675
0.00647937
0.00810583
-0.00942403
-0.00772047
0.00461541
-0.00301071
0.00142187
-0.00690242
-0.0117343
0.00531276
0.0172821
-0.0114686
-0.00760338
0.00574105
-0.00626859
0.0053835
-0.00802564
-0.0178707
0.00599529
0.00991049
-0.00516958
-0.00420942
0.00315087
-0.00284874
0.00146874
-0.000264879
-0.00789033
0.0017643
0.000102043
-0.00359056
0.000788248
0.000106033
-0.00160542
0.000328012
3.45837e-05
-0.000371848
9.72022e-05
3.3921e-05
3.42027e-07
-2.71275e-05
2.36935e-05
9.0051e-06
3.02502e-05
-1.81163e-05
1.29927e-05
-4.56531e-06
-3.59423e-05
2.38849e-05
-1.18965e-05
-0.000147323
4.55429e-05
0.000315333
-0.000431927
-5.32982e-05
0.000154492
-0.000129068
-0.000117354
-0.000113597
-0.0007941
-0.000334579
-0.000200508
-0.00111953
-0.000596559
0.000969595
-0.000982829
-0.000202075
-0.000632389
-0.00028845
-0.00433163
-0.00163124
-0.000734041
-0.000172723
-0.0137039
-0.0060085
0.00599957
-0.00542049
-0.000762692
-0.00206938
-0.000763172
-0.00549147
-0.0129128
-0.00332166
0.00403956
-0.0391727
-0.0146359
0.000235844
-0.0178154
-0.00576755
-0.0011986
-0.0211108
-0.00715682
0.00539411
-0.0382757
-0.0166359
0.00131765
-0.0155667
-0.00532236
-0.00035187
-0.0196495
-0.00742156
-0.000606623
-0.0221302
-0.00874431
-0.00105605
-0.0248753
-0.00881332
-0.000276603
-0.0255036
-0.00918124
4.43916e-05
-0.0251897
-0.00898408
0.000110524
-0.0252423
-0.009322
-0.000213295
-0.0220477
-0.00887498
-0.00145446
-0.0199181
-0.00785452
-0.00523651
-0.0153129
-0.00544717
0.000820515
-0.0340155
-0.0153897
-0.000263687
-0.0187931
-0.00644489
-0.00312953
-0.0141358
-0.0047784
0.00240844
-0.0258744
-0.0109155
0.000522158
-0.00995789
-0.00309714
-0.000271998
-0.00719312
-0.00299636
0.00123589
-0.00878094
-0.00442901
0.000138121
-0.00315463
-0.000738701
-0.000395863
-0.00220786
-0.000733589
-0.000225616
-0.00220794
-0.000919909
8.58172e-05
-0.000625009
-0.00175564
-9.59357e-06
-0.000754329
-0.000303123
3.50877e-05
0.000284886
-0.000261447
-3.02545e-05
9.70139e-05
3.95481e-05
-7.38836e-05
2.77754e-05
9.77379e-05
3.06898e-05
2.70738e-05
3.5845e-05
2.68403e-05
-7.47953e-06
5.12396e-05
-1.32228e-05
3.19441e-07
6.87965e-05
-1.94579e-06
-4.7714e-05
7.45102e-06
-2.27582e-05
-2.24845e-05
-2.09333e-06
-0.000391448
1.3318e-06
-0.000109364
-0.000147823
-2.06464e-05
-0.000105566
1.55297e-05
-0.00014023
-0.000153592
0.000116439
-0.000196957
8.21736e-05
8.88148e-05
-0.000103767
-0.000483134
7.54552e-05
0.000182486
-3.15357e-05
-9.20548e-06
0.000300418
-0.000177419
-0.000501852
0.000271155
-0.00026614
-0.000922261
0.000724239
0.0011393
0.00315315
-0.00173026
-0.00377758
0.00209455
-0.00813397
-0.00479342
0.00788065
0.00145008
-0.00648645
-0.00556219
0.0188701
-0.00493062
0.027421
-0.00769822
-0.00537831
-0.00203231
0.0105906
-0.00534152
-0.00279736
0.000901567
-0.00398223
-0.00671073
0.0104991
0.00199999
0.0150552
-0.00540121
-0.00316178
-0.0018149
0.0197792
-0.00364816
-0.00276367
-0.001204
0.0123361
-0.00382762
-0.00216473
-0.000949938
0.0106344
-0.00300513
-0.00240598
-0.000286077
0.00824748
-0.00282151
-0.00187676
0.00199831
0.00863572
-0.00261966
-0.00455604
4.28568e-05
0.0178154
-0.00272404
-0.00234602
5.90836e-05
0.014583
-0.00369387
-0.00281193
0.000117826
0.0140116