/*--------------------------------*- C++ -*----------------------------------*\
  =========                 |
  \\      /  F ield         | OpenFOAM: The Open Source CFD Toolbox
   \\    /   O peration     | Website:  https://openfoam.org
    \\  /    A nd           | Version:  7
     \\/     M anipulation  |
\*---------------------------------------------------------------------------*/
FoamFile
{
    version     2.0;
    format      ascii;
    class       volScalarField;
    location    "18.8";
    object      alpha.water;
}
// * * * * * * * * * * * * * * * * * * * * * * * * * * * * * * * * * * * * * //

dimensions      [0 0 0 0 0 0 0];

internalField   nonuniform List<scalar> 
15142
(
6.50846e-06
4.62188e-07
1.98706e-05
9.57792e-07
1.04677e-08
1.02599e-07
1.00513e-06
9.57988e-06
0.000108671
0.000300956
0.000284171
0.000102489
2.0021e-05
1.18676e-06
1.71205e-08
2.10503e-10
1.26762e-12
2.06879e-15
8.41863e-15
7.79145e-15
1.70153e-15
7.70863e-14
8.98968e-09
9.58585e-08
4.16947e-06
4.30293e-05
0.000158682
0.000257018
0.000354304
0.0005262
0.000524076
0.000597587
0.000605643
0.000605643
0.000554001
0.000878624
0.00143551
0.00226844
0.00316776
0.00433639
0.00821696
0.0127807
0.0186508
0.0406502
0.0690022
0.106897
0.199832
0.323315
0.461472
0.59993
0.717895
0.733066
0.656739
0.482654
0.274745
0.191259
0.34912
0.250668
0.264302
0.290043
0.250711
0.28364
0.285938
0.323508
0.306802
0.161835
0.0941858
0.049608
0.0328395
0.0211535
0.00995297
0.00491794
0.0081947
0.0125442
0.0179062
0.0346713
0.072249
0.10359
0.191873
0.222141
0.347631
0.533829
0.606196
0.757675
0.736035
0.774243
0.864219
0.869356
0.868014
0.868179
0.867446
0.866263
0.864936
0.863422
0.863004
0.846247
0.712743
0.673167
0.649768
0.510901
0.450925
0.359676
0.18709
0.117098
0.0800377
0.077559
0.0476463
0.0234675
0.013111
0.0169805
0.0377273
0.0671255
0.121164
0.151489
0.181366
0.271215
0.289252
0.31906
0.257159
0.139475
0.0933582
0.118762
0.185178
0.1004
0.130965
0.211603
0.315742
0.315742
0.311158
0.318294
0.346777
0.364151
0.38994
0.416969
0.444937
0.388393
0.371098
0.419969
0.430723
0.297039
0.23495
0.137916
0.100712
0.0707932
0.0407655
0.0171383
0.00808573
0.00430788
0.00348393
0.00305815
0.00224107
0.00167692
0.00234641
0.00527361
0.0110125
0.00775594
0.00392163
0.00236314
0.00175513
0.000772989
0.000384597
0.000109455
4.23492e-06
5.37525e-05
3.45814e-05
0.00111816
0.00123238
0.00296181
0.00582075
0.0196215
0.0277465
0.0116981
0.00732066
0.0039258
0.0017394
0.000953032
0.00132713
0.000674914
0.000120601
0.000895015
0.00187438
0.00421647
0.0154813
0.0169664
0.010013
0.0363285
0.0752792
0.0806334
0.0591829
0.130302
0.209289
0.177196
0.0940603
0.133111
0.237987
0.178091
0.0913182
0.149539
0.12272
0.0661048
0.117302
0.110858
0.052171
0.0918488
0.0911369
0.0461929
0.0920182
0.110531
0.0560058
0.0290215
0.0607313
0.0653105
0.0458959
0.030886
0.0607503
0.0678438
0.0618455
0.0398544
0.0757161
0.0944896
0.0898739
0.0633951
0.0365991
0.0111067
0.0179928
0.024308
0.00911643
0.00910809
0.0123807
0.00676595
0.00373178
0.00305839
0.00300583
0.000826744
0.00297862
0.0125646
0.0224163
0.0336928
0.0136648
0.0174486
0.0237095
0.00797894
0.0113504
0.0180758
0.00757253
0.0146654
0.0255155
0.0126102
0.0281726
0.0145231
0.034108
0.0188211
0.0460527
0.0263053
0.0661863
0.0424686
0.0185374
0.0110285
0.0116057
0.00778725
0.00824641
0.00442899
0.00645534
0.00386266
0.0065525
0.00394605
0.00265652
0.0031105
0.00331705
0.00556639
0.00921149
0.0147031
0.0198212
0.0283414
0.0582417
0.0313911
0.0245677
0.0225214
0.0214647
0.0186681
0.0209274
0.00814973
0.0119756
0.0152
0.0116231
0.00948537
0.00576772
0.00334149
0.002518
0.00104626
0.00165072
0.00183625
0.00119788
0.000601139
2.79084e-05
1.69419e-05
8.96862e-05
1.6808e-05
3.27425e-05
0.000216879
0.00278346
0.00566525
0.011106
0.0189116
0.0192252
0.0155159
0.0610669
0.112736
0.154544
0.0927745
0.0454463
0.00752633
0.0121698
0.0178329
0.00494653
0.00117737
0.000544914
0.000180745
6.05727e-05
1.73527e-07
8.86266e-10
3.76896e-09
6.56528e-09
9.06332e-10
9.11683e-11
2.77691e-08
5.72605e-07
2.08528e-05
0.000321813
8.95396e-05
2.02807e-05
7.87742e-06
6.53695e-07
2.16422e-06
1.27659e-05
7.77175e-05
0.000300927
0.000406139
0.000406893
0.000196619
3.41274e-05
1.0338e-06
4.50669e-09
5.6923e-11
5.2854e-13
1.53259e-13
7.66549e-13
1.92636e-11
1.36742e-10
1.79382e-12
9.26387e-09
8.03226e-08
4.09208e-06
6.36575e-05
0.00015868
5.54439e-05
4.32277e-05
7.09736e-05
0.000194558
0.000398968
0.000605643
0.000431563
0.000163092
0.00024633
0.000297301
0.000441131
0.000791033
0.00128618
0.00282992
0.00513141
0.00772333
0.0182078
0.0346613
0.0592591
0.120393
0.228765
0.392043
0.583815
0.74715
0.747147
0.588253
0.343108
0.191269
0.191245
0.380861
0.207068
0.32255
0.353801
0.353835
0.353833
0.353835
0.344591
0.279763
0.217949
0.112612
0.0458016
0.0243411
0.0132425
0.00484018
0.00167492
0.00316002
0.00475359
0.00779537
0.0173482
0.0304617
0.0701321
0.189998
0.335294
0.344377
0.595748
0.709923
0.746605
0.758487
0.84586
0.878006
0.878006
0.878007
0.878007
0.878007
0.878007
0.878007
0.878006
0.878006
0.878006
0.799641
0.7514
0.745509
0.599155
0.509728
0.456307
0.252394
0.185168
0.161539
0.118547
0.0671818
0.0250876
0.00994436
0.00846772
0.0195352
0.0361317
0.0632358
0.085815
0.147297
0.307309
0.399809
0.400484
0.391609
0.195087
0.10038
0.0974351
0.139851
0.0729411
0.089547
0.224767
0.269582
0.282074
0.301354
0.301241
0.322365
0.319301
0.396358
0.396184
0.336573
0.243589
0.308971
0.447264
0.447273
0.443568
0.295595
0.198941
0.140915
0.0752737
0.0310408
0.0107726
0.00441727
0.0021331
0.0018404
0.0011585
0.00117121
0.00198715
0.00114571
0.00209064
0.00481402
0.00295981
0.00135904
0.000734721
0.000493578
0.000787844
0.000848029
0.00033697
8.35096e-05
2.70279e-06
7.01272e-06
0.000142241
0.000518217
0.000788349
0.000414505
0.000323604
0.000272704
0.000205053
0.000189619
0.000168518
0.000162558
0.00026156
0.000315522
0.000403976
0.000353389
0.000153265
0.000111207
6.14301e-05
9.70057e-06
2.64756e-07
8.95164e-10
1.10413e-11
6.64885e-12
3.16132e-12
1.60905e-11
3.52849e-10
1.4334e-09
7.65114e-12
5.83994e-09
5.34255e-08
2.94829e-06
4.08853e-05
5.17171e-05
2.19662e-05
1.94545e-05
3.83639e-05
2.66617e-05
5.71385e-05
5.47672e-05
0.000110304
0.000309737
0.000113517
7.86241e-05
0.000120937
0.000178109
0.000137587
0.000137587
0.000470927
0.00126372
0.00262427
0.00420211
0.00989089
0.0201931
0.0396618
0.093626
0.161851
0.314227
0.462513
0.747147
0.747146
0.477344
0.291169
0.19126
0.191427
0.380752
0.186318
0.1482
0.226047
0.353803
0.353803
0.353835
0.353801
0.252989
0.200464
0.215646
0.0781929
0.0264169
0.00980383
0.0120046
0.00813116
0.00380584
0.00167599
0.00233431
0.00296651
0.00305902
0.00220603
0.00168671
0.00182989
0.00243175
0.00304885
0.00407378
0.00306265
0.00149276
0.000620668
0.000244842
1.5157e-05
3.5166e-07
7.50264e-09
1.48316e-10
1.2977e-14
6.15378e-15
4.45566e-14
2.32712e-12
3.55702e-06
2.48727e-05
1.57321e-06
0.000136596
0.000177273
0.00188583
0.00146538
0.0050523
0.00831092
0.00202585
0.00274697
4.83864e-05
0.000886201
9.96149e-05
0.00258974
0.00321929
0.00346971
0.00446813
0.00970458
0.0147758
0.0295798
0.0435841
0.127866
0.295466
0.30475
0.356417
0.376368
0.398323
0.396648
0.382897
0.386563
0.379645
0.380885
0.390895
0.34459
0.14934
0.110822
0.108318
0.054199
0.0139552
0.0132284
0.0043249
0.00110667
3.08523e-05
0.000793235
0.0194237
0.0651735
0.00813815
2.60349e-05
2.60424e-05
2.87839e-05
3.87072e-05
5.03066e-05
6.54443e-05
8.19315e-05
9.50094e-05
9.03746e-05
5.84104e-05
9.42035e-05
1.09996e-05
2.39443e-05
1.81369e-06
1.30096e-06
6.51278e-08
1.2404e-10
2.2175e-11
1.38737e-10
3.29867e-11
8.37421e-10
1.33933e-09
9.82389e-10
2.24596e-09
2.25722e-07
7.82197e-07
1.38176e-05
2.25866e-05
1.5172e-05
6.7059e-06
2.38956e-05
5.19034e-05
5.19014e-05
6.07942e-05
4.50216e-05
2.30369e-05
9.12248e-05
0.000160764
0.00016076
0.000147234
0.000269257
0.000555041
0.000248467
0.0023614
0.00756805
0.0068214
0.0252885
0.107821
0.153484
0.322257
0.487347
0.712452
0.597129
0.429582
0.334089
0.22821
0.370525
0.293828
0.243392
0.320193
0.290876
0.353803
0.337678
0.205162
0.195146
0.151302
0.0520847
0.0197819
0.00533892
0.00151925
0.00301489
0.00216599
0.00117616
0.0027554
0.00940993
0.00569035
0.0149704
0.028042
0.0551762
0.0761081
0.146359
0.33511
0.288153
0.30874
0.523287
0.709695
0.657309
0.676562
0.840366
0.878006
0.878007
0.878007
0.878007
0.878007
0.878007
0.878007
0.878007
0.877925
0.852332
0.750304
0.642845
0.613805
0.488987
0.344384
0.31084
0.197039
0.136075
0.136122
0.0765158
0.0452693
0.0162325
0.00866366
0.00673518
0.00589469
0.00584471
0.00572783
0.00629516
0.00660131
0.00774434
0.00993717
0.0099243
0.0133493
0.0133142
0.00752735
0.00420328
0.00537905
0.0101705
0.0123151
0.0451438
0.100481
0.155351
0.236845
0.206495
0.072804
0.113134
0.172726
0.15461
0.0831276
0.0800062
0.0732801
0.153726
0.139385
0.12926
0.112279
0.115332
0.0981368
0.122287
0.112772
0.113825
0.123068
0.121513
0.129853
0.141245
0.171143
0.11364
0.020742
0.0129707
0.00373135
0.000579447
0.000126531
9.60771e-05
0.000238337
0.00337391
0.0151763
0.000987283
7.98388e-05
8.35581e-05
0.000194994
0.000264128
6.16295e-05
0.000113873
0.000141093
3.85498e-05
6.02759e-06
1.50148e-06
2.04619e-05
1.97212e-05
1.79785e-05
1.24555e-05
9.42964e-06
1.21434e-05
4.57528e-06
1.35636e-06
1.97176e-06
7.26476e-07
1.68499e-07
2.54942e-07
9.04253e-08
1.52054e-09
3.46792e-09
3.61288e-10
6.57795e-10
1.73331e-09
7.22949e-10
3.23224e-09
3.76103e-09
2.6658e-09
1.40936e-09
7.01667e-08
2.24222e-07
2.44434e-06
4.52846e-06
1.00478e-05
9.08172e-06
3.40964e-06
1.02094e-05
4.87176e-05
2.36723e-05
1.0618e-05
3.98657e-05
6.38259e-05
3.2058e-05
2.12759e-05
8.67691e-05
0.000133184
7.93391e-05
0.000105709
6.4156e-05
0.0009656
0.000157884
0.000913303
0.0120126
0.0339252
0.0840085
0.137139
0.275178
0.502301
0.653502
0.653502
0.467543
0.383753
0.311488
0.13755
0.13067
0.154339
0.122324
0.13857
0.120271
0.133977
0.108883
0.10825
0.17765
0.188922
0.172411
0.239641
0.221717
0.106202
0.0762583
0.0298918
0.00577618
0.00097702
0.00113453
0.00345857
0.0104475
0.0316606
0.0278964
0.0548061
0.0612385
0.108225
0.08108
0.094998
0.076645
0.239261
0.151718
0.292715
0.222583
0.425976
0.507149
0.632934
0.630249
0.749675
0.595722
0.464532
0.588863
0.570979
0.721193
0.68418
0.746131
0.810579
0.86807
0.780296
0.875678
0.814383
0.767
0.70116
0.768415
0.766026
0.71957
0.788504
0.735737
0.84746
0.828987
0.715654
0.846532
0.79632
0.679655
0.68674
0.803906
0.684157
0.680768
0.46075
0.273085
0.145379
0.0838126
0.0561621
0.0410196
0.01919
0.00741993
0.000659232
4.87352e-23
2.09149e-23
1.57741e-21
0.00328994
0.00805724
0.00375472
0.00674497
0.00663226
0.0143595
0.0268726
0.0512167
0.0647824
0.169229
0.333736
0.302978
0.30156
0.295584
0.0941188
0.0311743
0.0318991
0.0335893
0.044215
0.0452095
0.0457537
0.0463837
0.115882
0.190848
0.224924
0.287141
0.326819
0.405553
0.331221
0.111458
0.0823588
0.0260778
0.00386346
0.0145575
0.122483
0.420915
0.188228
0.0494033
5.50653e-06
1.97558e-06
5.39705e-06
5.97972e-06
6.65838e-06
7.00274e-06
4.92484e-06
3.05342e-06
1.6722e-06
3.86949e-07
2.11523e-07
4.04355e-08
2.07276e-08
2.68324e-09
3.6048e-10
1.47141e-09
4.05782e-10
1.4077e-09
1.36376e-09
3.53278e-09
4.18182e-09
2.89658e-09
2.03002e-08
5.02212e-08
9.77547e-09
1.48437e-07
3.19791e-07
8.41526e-07
3.10857e-06
5.98526e-06
9.08232e-06
3.39636e-06
7.52364e-06
3.62589e-05
2.92554e-05
1.00127e-05
2.26399e-05
1.3108e-05
2.27348e-05
1.13738e-05
3.23989e-05
5.13554e-05
1.51118e-05
1.75536e-05
2.27494e-05
2.6617e-05
2.63452e-05
5.10794e-05
0.0132427
0.0902929
0.0409307
0.0833657
0.163242
0.211193
0.454472
0.617396
0.669671
0.505802
0.454973
0.251307
0.358768
0.168406
0.151773
0.136098
0.374627
0.314062
0.362436
0.270388
0.364199
0.367071
0.336068
0.179012
0.133595
0.364887
0.364808
0.228191
0.156863
0.046614
0.00814647
0.00170583
0.00206884
0.00579933
0.0162357
0.0424045
0.0750565
0.0322083
0.0120351
0.00465601
0.00258244
0.0125311
0.058302
0.050541
0.162126
0.068265
0.0713667
0.0334836
0.0161043
0.00332553
0.00847193
0.0220182
0.0591971
0.128094
0.198462
0.11922
0.0556405
0.0237725
0.0373519
0.0523396
0.143805
0.131617
0.14381
0.146074
0.146217
0.0819263
0.12055
0.0906071
0.0417967
0.0834263
0.0734749
0.042279
0.0433733
0.021628
0.00997431
0.00606598
0.00645734
0.0089319
0.0118333
0.00918791
0.00784327
0.00309984
6.02164e-12
9.16084e-11
2.63505e-12
2.52903e-13
2.71309e-13
4.24377e-09
5.5132e-10
0.00239275
4.22112e-08
1.87299e-07
7.39905e-08
2.46239e-07
3.20731e-07
5.23971e-07
0.0110362
0.00998707
0.0310619
0.0809138
0.205883
0.507668
0.627425
0.645422
0.609069
0.388632
0.378152
0.530654
0.381194
0.329609
0.200301
0.0983744
0.0510692
0.0200476
0.00879882
4.36882e-09
3.58504e-09
5.29443e-09
6.94922e-09
3.04818e-09
2.68296e-09
2.60601e-09
2.47602e-09
2.21429e-09
2.27351e-09
2.61738e-09
2.72821e-09
4.10032e-09
8.00962e-09
9.20538e-09
1.24089e-07
2.54399e-07
1.14688e-06
1.57897e-06
3.92167e-06
6.72278e-06
2.8095e-06
4.90074e-06
2.13667e-05
2.52502e-05
9.35774e-06
7.09133e-06
6.53962e-06
5.43251e-06
2.8447e-06
6.19886e-06
1.52825e-05
1.997e-05
0.000297067
0.0013797
0.00851197
0.0242602
0.065502
0.247076
0.533582
0.670444
0.538294
0.590986
0.311997
0.426117
0.316095
0.133927
0.139148
0.347603
0.245052
0.362575
0.318278
0.204492
0.0870909
0.123147
0.150726
0.0763543
0.0192953
0.00746062
0.0157587
0.0399943
0.105398
0.21932
0.185151
0.431126
0.314882
0.485938
0.361654
0.508244
0.391456
0.497164
0.615911
0.712974
0.573058
0.632001
0.483319
0.625778
0.659288
0.727606
0.784462
0.754828
0.450529
0.41682
0.533764
0.785072
0.785072
0.719747
0.621674
0.526865
0.785072
0.763123
0.724653
0.634632
0.655525
0.668065
0.711738
0.729994
0.757901
0.785072
0.785072
0.642865
0.406581
0.546555
0.702513
0.83706
0.711621
0.53408
0.412902
0.268764
0.138636
0.0827531
0.0584089
0.0478169
0.0435827
0.0250165
0.0139005
0.00627044
1.6718e-21
6.98156e-21
7.53016e-23
2.6717e-30
2.92858e-30
3.13288e-28
2.84551e-13
0.00165406
0.0151458
0.0698279
0.161821
0.476787
0.206544
0.191548
0.157143
0.132569
0.125808
0.0977298
0.181624
0.15267
0.141051
0.0744721
0.0277665
0.04661
0.234178
0.560626
0.390189
0.196663
0.00255355
1.70044e-07
1.14597e-07
1.67433e-07
3.18523e-07
1.36771e-07
8.51526e-08
8.5253e-08
3.88951e-08
1.97251e-08
2.04685e-08
8.17895e-09
2.17679e-09
2.41702e-09
3.99918e-09
3.20502e-09
2.16075e-09
2.49705e-09
3.96265e-10
2.78937e-09
3.92016e-08
9.36788e-08
3.13217e-07
5.85991e-07
1.93984e-06
3.0442e-06
1.93764e-06
1.79196e-06
2.85749e-06
1.07152e-05
1.627e-05
1.62703e-05
1.06495e-05
1.07344e-05
4.20404e-06
7.69936e-06
2.57862e-06
3.11613e-06
4.40201e-06
3.90806e-06
0.00427309
0.0170387
0.0573412
0.195208
0.294659
0.165632
0.281194
0.535334
0.518529
0.194583
0.176855
0.110318
0.117772
0.0739214
0.111823
0.0729604
0.081743
0.0966568
0.115354
0.110724
0.0975962
0.148033
0.0775102
0.1964
0.294757
0.430181
0.252086
0.254436
0.116624
0.0267141
0.0274533
0.0263171
0.0624277
0.142189
0.218402
0.230146
0.138494
0.0715063
0.0945863
0.206312
0.192728
0.434852
0.277221
0.369659
0.395935
0.486551
0.487765
0.317378
0.208921
0.14732
0.242567
0.541514
0.62468
0.690896
0.72351
0.665028
0.615308
0.734642
0.680203
0.720653
0.717393
0.766843
0.766843
0.520104
0.448273
0.558228
0.766843
0.704466
0.720073
0.74545
0.739778
0.761882
0.785072
0.768444
0.785076
0.785076
0.753281
0.825749
0.810291
0.752234
0.637429
0.636845
0.764237
0.641693
0.655111
0.448061
0.262607
0.128712
0.0682457
0.0394676
0.0249048
0.00734002
0.000343348
8.59601e-23
7.4059e-23
2.2836e-21
0.000727184
0.0076148
0.0110685
0.0252658
0.0442915
0.101913
0.192938
0.335965
0.395252
0.395252
0.386788
0.345765
0.154945
0.0505176
0.0477311
0.050222
0.039896
0.0990496
0.24423
0.255707
0.330694
0.357015
0.433287
0.463594
0.505057
0.531554
0.531462
0.512661
0.260261
0.221834
0.19059
0.0901267
0.0461013
0.0208613
0.0224632
0.0993268
0.282359
0.0805863
0.0212388
0.000623142
7.92659e-07
3.01323e-07
7.44187e-07
1.10922e-06
6.23809e-07
2.84914e-07
2.10395e-07
2.07571e-07
9.05334e-08
3.57639e-08
6.2375e-09
1.20961e-10
4.20957e-26
1.1794e-22
2.23242e-22
3.34207e-22
8.86847e-09
4.73915e-08
5.08437e-08
1.99355e-07
1.73155e-08
7.90708e-13
3.86883e-11
3.50144e-08
3.1266e-08
1.07108e-06
2.41229e-07
5.85621e-11
3.26632e-08
1.94159e-07
1.91556e-07
1.0493e-05
1.26056e-05
7.45036e-06
1.90437e-06
6.37727e-06
4.61456e-05
3.30004e-05
7.54617e-06
1.3935e-06
3.09731e-07
7.96423e-07
1.37109e-06
7.05663e-07
1.47495e-06
1.87647e-06
2.18504e-06
1.63798e-06
8.24555e-07
1.16349e-06
1.78003e-06
0.000129749
0.0424904
0.50781
0.122368
0.0288782
0.0196294
0.0590159
0.171802
0.402691
0.540288
0.473594
0.540288
0.421834
0.496559
0.241688
0.322885
0.139786
0.220002
0.0889684
0.146941
0.0555372
0.0283584
0.0323747
0.0419088
0.14209
0.296454
0.479608
0.362206
0.34582
0.26552
0.25968
0.135394
0.0798189
0.0772199
0.12822
0.15525
0.273863
0.368326
0.529365
0.536266
0.514175
0.281819
0.13234
0.12499
0.42071
0.560626
0.367717
0.183864
0.010585
4.23312e-08
4.62546e-08
7.13606e-08
1.29389e-07
1.51019e-07
4.38605e-08
1.85962e-08
1.1741e-08
1.08732e-08
4.11951e-09
2.17605e-09
1.04692e-08
2.30784e-09
8.46687e-10
2.72164e-09
3.28469e-09
3.01189e-09
3.2071e-09
2.63089e-09
2.26886e-09
2.57149e-08
4.18254e-08
9.20662e-08
2.77254e-07
1.11283e-06
1.17628e-06
1.66538e-06
1.9882e-06
2.60093e-06
7.58503e-06
4.80064e-06
1.20863e-05
6.87003e-06
1.07896e-05
1.07896e-05
3.73509e-06
4.0268e-06
2.69602e-06
0.00155169
3.32425e-06
3.36302e-06
0.0036925
0.0145805
0.0353874
0.128248
0.254424
0.407132
0.600985
0.418768
0.369795
0.148741
0.187524
0.271183
0.445628
0.439453
0.225964
0.394828
0.408343
0.468156
0.445531
0.368014
0.337193
0.13078
0.0268846
0.0339405
0.0686792
0.0367051
0.113455
0.253988
0.171259
0.349034
0.52521
0.52877
0.496735
0.544084
0.478833
0.643224
0.666818
0.464521
0.426117
0.473213
0.292484
0.179289
0.255227
0.172974
0.26092
0.228084
0.158268
0.0724438
0.134774
0.0457355
0.00493646
0.0197534
0.0561672
0.156333
0.312276
0.432534
0.233412
0.120257
0.0597179
0.0802909
0.153409
0.107962
0.194979
0.353072
0.520197
0.523039
0.590354
0.686119
0.538041
0.654363
0.766843
0.766843
0.68259
0.50048
0.625102
0.703325
0.701
0.700523
0.766843
0.766843
0.502009
0.378416
0.448889
0.329541
0.267536
0.195971
0.385251
0.686244
0.583568
0.464368
0.644797
0.745984
0.709521
0.736786
0.790471
0.763807
0.519774
0.413333
0.540403
0.79059
0.687306
0.677791
0.751912
0.766843
0.766843
0.746731
0.766338
0.76243
0.766843
0.766843
0.745626
0.72383
0.745825
0.678926
0.680962
0.774322
0.784969
0.712543
0.590261
0.720326
0.756517
0.672771
0.793132
0.781209
0.678793
0.497781
0.621428
0.539459
0.416309
0.194835
0.0889759
0.0404702
0.0187607
0.00819836
0.00328637
0.000679463
6.56074e-22
3.9806e-05
4.6331e-06
0.00182076
0.00261262
0.00485657
0.0227816
0.0249686
0.0235734
0.112129
0.349444
0.224623
0.114258
0.103805
0.106713
0.0628199
0.17214
0.314545
0.258237
0.479608
0.479693
0.334781
0.169546
0.0701935
0.0736134
0.0882848
0.109989
0.239841
0.266032
0.38161
0.427498
0.528767
0.606087
0.600755
0.573645
0.538761
0.293077
0.183535
0.228581
0.267575
0.510264
0.393976
0.206487
0.0416716
0.00144617
5.14348e-06
3.01119e-08
2.9102e-08
4.26585e-08
1.71796e-08
1.4215e-08
6.84322e-09
4.86198e-09
3.97684e-09
3.6458e-09
3.25658e-09
2.6916e-09
2.84447e-09
1.19793e-09
4.91089e-09
8.38831e-09
1.49245e-08
2.02629e-08
1.21577e-07
2.26822e-07
7.52533e-07
9.39553e-07
1.15481e-06
1.36147e-06
2.77569e-06
2.13776e-06
5.19127e-06
3.38809e-06
5.30283e-06
2.01287e-06
0.000250694
4.40597e-06
0.00196879
0.00834485
0.0291818
0.0821102
0.217077
0.342825
0.512394
0.715826
0.742404
0.684464
0.742085
0.726173
0.481483
0.227722
0.227086
0.236203
0.217596
0.128143
0.314382
0.190394
0.169663
0.133026
0.324636
0.123656
0.204033
0.0946742
0.115129
0.134303
0.122303
0.208235
0.182422
0.305224
0.622673
0.742404
0.666466
0.376831
0.126185
0.0474423
0.00979529
0.0347458
0.105534
0.251343
0.398862
0.58185
0.532399
0.433092
0.36754
0.422545
0.428629
0.326841
0.314758
0.245731
0.251019
0.301915
0.414313
0.509548
0.411645
0.310122
0.161561
0.246856
0.439199
0.517214
0.483145
0.313828
0.226488
0.097812
0.129451
0.120342
0.0430604
0.0439407
0.0585673
0.106163
0.0443288
0.00913076
0.00288782
0.00250238
0.00204826
0.00183002
6.39843e-16
6.66326e-15
1.30344e-08
4.62712e-08
0.022732
0.0649321
0.303242
0.541097
0.826638
0.839343
0.787606
0.855438
0.838034
0.855429
0.87228
0.89748
0.875819
0.897481
0.876521
0.876528
0.838444
0.832762
0.786745
0.729163
0.76925
0.520165
0.673936
0.848339
0.85457
0.854568
0.846977
0.846986
0.844939
0.83754
0.837772
0.756179
0.664602
0.731557
0.461176
0.62122
0.440172
0.62868
0.849413
0.847075
0.849414
0.735215
0.790471
0.74182
0.549207
0.372594
0.521943
0.269544
0.125175
0.0733513
0.271408
0.399756
0.508695
0.601127
0.482744
0.766843
0.766843
0.741358
0.669426
0.536197
0.680484
0.766843
0.766843
0.765925
0.695975
0.699685
0.590401
0.549586
0.611215
0.50584
0.611812
0.594016
0.510823
0.435018
0.388463
0.505507
0.373413
0.197412
0.103748
0.153562
0.260329
0.140897
0.22867
0.228356
0.197812
0.352889
0.496664
0.394483
0.306193
0.275352
0.410915
0.323343
0.32878
0.436853
0.520179
0.547627
0.193721
0.0721509
0.0281498
0.0115459
0.00413234
0.00152676
0.000721622
4.00692e-05
0.00120696
0.000721534
0.000858238
0.00147294
0.00347249
0.0136982
0.0205888
0.0298357
0.0303408
0.0462516
0.0259522
0.0505521
0.0801776
0.0840188
0.0772235
0.141949
0.261219
0.350082
0.317522
0.479608
0.479693
0.401182
0.457357
0.343322
0.223145
0.185293
0.287106
0.360576
0.283834
0.241566
0.43838
0.534351
0.603088
0.607295
0.607295
0.581995
0.333578
0.343464
0.242086
0.161844
0.0797043
0.107463
0.419048
0.561884
0.500391
0.341742
0.0869928
0.0194084
0.00543947
1.28703e-08
8.92454e-09
1.37631e-08
1.81547e-08
4.95581e-09
3.62012e-09
3.70917e-09
3.22811e-09
1.76963e-09
8.39166e-10
2.06607e-09
4.28753e-09
9.38274e-09
4.44222e-08
5.166e-08
9.39296e-08
2.82076e-08
6.41882e-08
2.3907e-07
4.39687e-07
6.47916e-07
8.27158e-07
1.56954e-06
1.06594e-06
1.4614e-06
7.13262e-07
1.82577e-06
0.00245984
0.00921
0.0200829
0.0724858
0.231405
0.371307
0.587641
0.687894
0.640686
0.760572
0.753634
0.753631
0.685854
0.710338
0.694434
0.57792
0.644677
0.644881
0.496414
0.522603
0.596843
0.571561
0.572651
0.412794
0.110343
0.0873719
0.153583
0.310556
0.430642
0.629754
0.392516
0.21439
0.340532
0.52179
0.728672
0.758072
0.662052
0.489119
0.315102
0.256141
0.522269
0.413503
0.374515
0.33452
0.507192
0.655543
0.757715
0.774229
0.668935
0.516401
0.330047
0.539401
0.363269
0.462118
0.600747
0.645856
0.56486
0.358904
0.223205
0.388174
0.577826
0.70919
0.639339
0.494191
0.627676
0.753601
0.690885
0.590879
0.698738
0.760572
0.760572
0.651366
0.44826
0.580495
0.408866
0.351927
0.551621
0.760572
0.286822
0.436463
0.189847
0.37238
0.695536
0.436006
0.425054
0.348768
0.28811
0.285537
0.382204
0.399159
0.573424
0.360532
0.520879
0.662877
0.795692
0.584421
0.338408
0.521177
0.348752
0.219248
0.0894138
0.219011
0.402546
0.747189
0.592922
0.661866
0.662109
0.607618
0.626182
0.673031
0.655981
0.55031
0.718663
0.836315
0.833082
0.786982
0.668901
0.511857
0.610821
0.344538
0.223674
0.0617049
0.152084
0.280642
0.650172
0.795838
0.868193
0.902852
0.915396
0.915394
0.856701
0.904898
0.912293
0.912288
0.743276
0.555682
0.73417
0.487
0.647949
0.808033
0.924533
0.954556
0.947722
0.954556
0.926909
0.929639
0.928846
0.914126
0.917181
0.917181
0.721808
0.824741
0.618825
0.794723
0.951388
0.95281
0.95281
0.925411
0.91395
0.893174
0.91395
0.900323
0.912148
0.912142
0.718076
0.822285
0.634617
0.801572
0.922391
0.905622
0.89188
0.905624
0.858551
0.763323
0.635596
0.650873
0.634911
0.458985
0.43585
0.49637
0.656514
0.666768
0.624621
0.645422
0.577917
0.421046
0.426333
0.536384
0.587722
0.543008
0.509569
0.278226
0.173014
0.106264
0.0492583
0.0156927
0.00559316
1.99804e-09
1.9978e-09
2.8447e-09
3.62865e-09
2.38717e-09
2.23859e-09
2.90369e-09
2.94314e-09
4.25025e-09
1.78673e-09
6.58037e-09
1.16537e-08
2.35234e-08
1.0791e-07
1.659e-07
2.83747e-07
3.91034e-07
5.50796e-07
5.17329e-07
5.61581e-07
2.8222e-07
2.8222e-07
0.00131773
0.00521996
0.0164797
0.184271
0.336196
0.514855
0.62175
0.597011
0.622839
0.642149
0.780525
0.781023
0.702752
0.706545
0.560631
0.620716
0.565181
0.731694
0.731445
0.717134
0.745739
0.705087
0.783752
0.78386
0.771696
0.876042
0.913514
0.911723
0.913514
0.705253
0.510861
0.701387
0.891387
0.797617
0.777607
0.890337
0.922538
0.95754
0.951073
0.957147
0.958983
0.950712
0.956696
0.915545
0.863871
0.730347
0.739255
0.731557
0.659286
0.627624
0.600018
0.64261
0.69813
0.613661
0.55575
0.512158
0.578121
0.542465
0.402756
0.349631
0.249221
0.115663
0.0969652
0.053129
0.0213028
0.00692998
1.55859e-05
1.99804e-09
1.9978e-09
1.99756e-09
2.47123e-09
3.12051e-09
5.31299e-09
5.63966e-09
1.0121e-08
2.13696e-08
8.13285e-08
1.73033e-07
2.05083e-07
4.92999e-07
3.37019e-07
3.36836e-07
3.53184e-07
0.00749391
0.025697
0.0644765
0.12157
0.148421
0.291524
0.381887
0.418528
0.593003
0.604177
0.704929
0.732285
0.708096
0.773645
0.780629
0.706431
0.736642
0.737364
0.663013
0.678798
0.597715
0.591959
0.636281
0.764339
0.805634
0.872243
0.805931
0.903387
0.954708
0.97169
0.960334
0.97169
0.863159
0.723521
0.832707
0.879681
0.967916
0.967736
0.964593
0.985104
0.981893
0.985103
0.973522
0.974263
0.965738
0.969741
0.969741
0.860566
0.700815
0.822038
0.951457
0.880649
0.768808
0.818525
0.797616
0.507687
0.668631
0.715912
0.63174
0.759777
0.719308
0.575658
0.547443
0.650977
0.632711
0.512249
0.347525
0.234975
0.10938
0.103143
0.0233789
0.0189702
0.00812978
0.000325335
0.000206845
1.93005e-05
5.03504e-09
3.0946e-09
1.11094e-08
1.36806e-08
2.49296e-08
2.59833e-08
4.24726e-08
5.01823e-08
1.20628e-07
2.14676e-07
1.32882e-06
8.58436e-07
0.0162433
0.0451461
0.0873274
0.17169
0.258885
0.386591
0.508733
0.453664
0.566143
0.640674
0.746697
0.781888
0.781961
0.732428
0.720599
0.617705
0.720669
0.724781
0.729844
0.792556
0.806167
0.889208
0.889206
0.90675
0.867708
0.937147
0.959456
0.974358
0.977108
0.982841
0.983355
0.98138
0.985455
0.979192
0.968492
0.967535
0.921637
0.839396
0.863778
0.823756
0.599645
0.764896
0.760545
0.665721
0.759737
0.758648
0.64335
0.615447
0.694371
0.638578
0.394355
0.346666
0.198004
0.0693088
0.02547
0.0260198
0.0236192
0.0586004
0.123629
0.100778
0.0688296
0.0594365
0.0327093
0.0185457
0.0104735
2.92824e-08
3.34524e-08
5.28106e-08
6.00822e-08
1.05798e-07
1.20376e-07
1.56845e-07
8.15371e-08
0.00610744
0.0145711
0.0390351
0.0740749
0.140263
0.214278
0.265426
0.350792
0.439849
0.560408
0.714532
0.74336
0.782034
0.841742
0.812596
0.704952
0.70878
0.757663
0.812087
0.661852
0.717838
0.860342
0.920621
0.927616
0.908064
0.941792
0.976222
0.985706
0.974425
0.983373
0.918878
0.819512
0.901346
0.931108
0.983957
0.985706
0.977332
0.991191
0.988125
0.988433
0.987911
0.990844
0.980443
0.98603
0.98603
0.975122
0.949338
0.886486
0.893773
0.87073
0.762004
0.758214
0.75453
0.809532
0.801715
0.780645
0.701181
0.668578
0.71681
0.682182
0.535308
0.403921
0.102348
0.0532972
0.134464
0.22094
0.177324
0.385261
0.294422
0.263016
0.262411
0.213552
0.146072
0.0936641
0.0612266
0.0276333
0.0121119
0.00527714
6.36684e-08
0.00147365
0.0165664
0.0835679
0.252594
0.22194
0.4009
0.214029
0.353469
0.527059
0.224634
0.347565
0.531946
0.622041
0.884701
0.849746
0.841684
0.791127
0.864261
0.89488
0.834633
0.835794
0.884697
0.910157
0.918971
0.950505
0.959068
0.959068
0.96282
0.97265
0.988411
0.988939
0.986787
0.993279
0.993764
0.993822
0.991922
0.993309
0.981043
0.983966
0.98068
0.952709
0.945869
0.885886
0.839907
0.843638
0.853243
0.871172
0.792322
0.81442
0.803475
0.777445
0.759958
0.759953
0.74466
0.621862
0.609065
0.407318
0.14301
0.0988783
0.166266
0.220398
0.356605
0.538183
0.473031
0.716242
0.646395
0.578842
0.55526
0.477819
0.271514
0.0945759
0.136951
0.202064
0.275179
0.364681
0.513598
0.871512
0.933288
0.879464
0.850278
0.810999
0.743921
0.380399
0.529579
0.884701
0.849737
0.850354
0.89488
0.882436
0.912115
0.930508
0.910426
0.916336
0.928711
0.959423
0.968745
0.979348
0.992094
0.992094
0.991966
0.994921
0.99496
0.995359
0.996016
0.993937
0.991122
0.969024
0.963905
0.902037
0.877893
0.893505
0.909973
0.898362
0.84838
0.798796
0.823116
0.673814
0.483638
0.463625
0.434137
0.16442
0.117064
0.20342
0.451965
0.636419
0.820529
0.779621
0.870574
0.925129
0.937853
0.943546
0.921608
0.913694
0.882299
0.618506
0.717274
0.349375
0.474659
0.554998
0.622508
0.947521
0.951433
0.943545
0.73109
0.766978
0.939255
0.926406
0.936496
0.953903
0.977661
0.975128
0.971774
0.990563
0.993882
0.996346
0.996489
0.997089
0.997188
0.995328
0.98986
0.965766
0.970402
0.917733
0.896294
0.915816
0.924252
0.91807
0.824276
0.773121
0.837411
0.665823
0.516104
0.182929
0.182668
0.168062
0.135348
0.296998
0.548046
0.696589
0.843844
0.896157
0.871583
0.88827
0.962047
0.959596
0.947607
0.940224
0.955354
0.96383
0.981432
0.991014
0.983215
0.994512
0.997065
0.9992
0.997236
0.998441
0.98112
0.93509
0.979225
0.998545
0.999022
0.999023
0.982773
0.956635
0.98293
0.997969
0.994317
0.979338
0.982788
0.977246
0.83424
0.876568
0.976146
0.948412
0.868489
0.828863
0.875228
0.873629
0.597761
0.281239
0.0929715
0.158539
0.345847
0.493254
0.454478
0.413516
0.670307
0.716968
0.450637
0.690428
0.322798
0.43257
0.504094
0.889685
0.972727
0.965709
0.959123
0.975214
0.944172
0.936296
0.972908
0.994927
0.996366
0.996904
0.991265
0.997168
0.998533
0.9992
0.997688
0.998752
0.998918
0.999208
0.997239
0.98889
0.992876
0.988292
0.903519
0.918803
0.976587
0.970522
0.905722
0.877864
0.926952
0.922536
0.377051
0.142399
0.470687
0.613038
0.808704
0.733278
0.657954
0.147131
0.202284
0.283171
0.401734
0.868307
0.970949
0.951322
0.92307
0.987879
0.99283
0.994303
0.964035
0.962831
0.984587
0.997807
0.998659
0.995762
0.998546
0.999187
0.99947
0.999004
0.999451
0.999387
0.999557
0.99864
0.994341
0.996775
0.994736
0.952268
0.959132
0.985596
0.982462
0.934673
0.917375
0.954461
0.947232
0.48017
0.216001
0.54997
0.69952
0.773132
0.916546
0.984168
0.998174
0.996823
0.994611
0.926755
0.953221
0.996915
0.983251
0.991325
0.992881
0.998854
0.999303
0.997966
0.999183
0.999477
0.999609
0.999344
0.999638
0.999623
0.999694
0.999267
0.997147
0.998416
0.997711
0.975262
0.978304
0.992889
0.990717
0.959202
0.949484