/*--------------------------------*- C++ -*----------------------------------*\
  =========                 |
  \\      /  F ield         | OpenFOAM: The Open Source CFD Toolbox
   \\    /   O peration     | Website:  https://openfoam.org
    \\  /    A nd           | Version:  7
     \\/     M anipulation  |
\*---------------------------------------------------------------------------*/
FoamFile
{
    version     2.0;
    format      ascii;
    class       volScalarField;
    location    "18.8";
    object      p;
}
// * * * * * * * * * * * * * * * * * * * * * * * * * * * * * * * * * * * * * //

dimensions      [1 -1 -2 0 0 0 0];

internalField   nonuniform List<scalar> 
15142
(
-2.11432
-1.14021
-0.660618
-0.705076
-0.666808
-0.638928
-0.529077
-0.505114
-0.487928
-0.475991
-0.398608
-0.35991
-0.351217
-0.389291
-0.393584
-0.403935
-0.433158
-0.416098
-0.418516
-0.449388
-0.420233
-0.421631
-0.444034
-0.41257
-0.400836
-0.406416
-0.430596
-0.442664
-0.452546
-0.3554
-0.367316
-0.360106
-0.276042
-0.120534
-0.759922
-1.0927
-1.04672
0.316865
2.25892
-1.55491
6.28805
14.2103
14.8995
71.2895
203.867
400.484
921.03
2115.63
2802.63
4099.53
4786.14
4436.02
4273.17
2799.39
2297.06
1879.12
1612.04
1350.73
1422.36
1266.11
1393.76
1547.78
1163.39
1237.8
829.744
734.125
382.893
174.312
91.8419
42.8126
17.2075
24.1099
37.2236
27.4529
49.9498
131.233
328.328
394.714
781.308
959.243
1927.81
2842.13
3319.2
4233.42
5193.34
5466
6638.19
6145.41
6194.31
5978.66
5562.64
5564.26
5824.65
6084.25
5884.62
6160.74
4994.21
4312.51
3793.18
2745.35
2284.71
1529.29
920.292
667.391
449.173
358.058
157.932
72.967
81.7319
87.8359
42.4025
74.0999
215.003
400.468
707.247
1128.32
1712.19
1093.07
1030.66
587.254
555.274
609.022
638.233
603.999
788.113
731.909
1027.94
919.492
670.744
642.955
534.709
815.591
670.9
1567.71
1574.94
2121.41
1947.61
2201.95
2522.33
1753.89
1527.74
884.037
579.131
367.663
162.227
68.4766
28.9571
10.8977
4.62411
8.20789
10.0734
15.4165
27.7782
73.6741
136.812
94.7847
44.5681
18.3082
2.86365
-2.40329
-0.566338
-0.753057
-1.40001
-2.62104
-5.07718
-12.6452
-1.46381
1.55741
12.5973
43.4875
66.7153
9.27125
27.8157
10.2935
4.02516
-0.517839
-2.05061
-3.36288
-5.20146
3.66119
9.29466
30.9849
8.37259
69.4915
63.0448
221.635
267.887
490.383
359.122
740.942
528.852
801.421
631.45
755.175
182.615
356.188
846.94
384.959
280.159
549.364
270.209
238.497
440.478
201.814
176.737
440.997
176.038
104.042
271.103
206.416
180.111
108.037
234.065
187.763
190.802
169.661
317.345
242.312
382.699
252.12
419.713
255.971
119.69
16.9336
5.02194
-78.1145
8.52379
-4.78233
4.41107
16.983
15.1251
9.80211
11.5822
-6.92019
2.0802
61.4483
169.169
228.872
79.4819
104.649
143.065
43.947
69.0611
134.96
42.6456
92.9372
196.189
84.3606
180.969
101.202
216.493
139.285
286.341
193.875
471.312
306.299
160.692
92.6658
106.65
60.7966
70.9002
40.0051
49.5367
29.6308
42.2921
24.348
2.53319
7.15128
-0.53457
18.1866
13.368
45.6285
131.121
221.224
411.964
235.055
157.503
36.6642
63.9091
111.693
164.1
59.9628
44.7373
28.954
-3.4472
2.20981
15.7996
16.9273
23.4519
6.83115
6.64578
-3.00885
-2.05783
3.57719
-8.22534
-15.265
-16.486
-9.01925
-4.38519
-1.51073
4.30743
-4.98775
-12.8685
-14.0153
11.2196
11.2168
44.3027
22.5123
-36.6151
2.46621
25.6857
1.66194
-6.40482
-8.96735
-8.87334
-6.13883
-7.05654
-5.93057
-8.27053
-3.99936
-4.7654
-6.34746
-3.85901
-1.85131
-1.7795
-1.83748
-2.97115
-3.88363
-4.24105
-3.35003
-2.58005
-2.25371
-1.45366
-1.35821
-1.18966
-1.10348
-1.12717
-1.25658
-1.27207
-1.236
-1.14095
-1.08692
-1.05679
-1.0619
-1.11317
-1.11098
-1.11229
-1.15276
-1.12928
-1.11013
-1.13802
-1.11921
-1.13357
-1.24987
-1.3817
-1.38051
-1.28176
-1.23318
-1.29243
-1.33325
-1.38279
-1.54462
-2.09649
-2.21737
-2.77645
-4.25763
-3.79829
-5.45495
-5.1909
-2.72496
-7.07854
43.4825
197.452
409.556
1284.83
2650.12
4410.8
7093.9
8836.74
9076.48
7434.97
5000.32
3648.58
3407.3
3050.18
2296.96
1986.46
2390.07
3358.62
3734.88
2684.12
2624.76
2208.7
1487.4
778.248
317.47
92.793
82.7681
25.4645
24.9878
43.0105
30.6544
86.5039
244.577
450.743
506.399
1652.97
2059.9
3302.24
5756.47
6965.5
10129
10099.5
10576
12861.3
11851.4
12262.7
12673.4
12449.4
12367
12610.9
12044.6
11535.2
12274.9
9625.97
8870.54
8667.46
5757.52
4820.14
3793.94
1949.18
1423.33
1094.61
717.582
384.834
176.517
111.071
121.231
88.1186
140.402
488.027
464.89
1495.42
2616.46
2857.62
2270.98
2452.33
1837.81
1802.67
1683.28
1646.65
1617.95
1656.79
1731.53
2244.3
2062.49
1888.94
2132.38
2296.11
2577.81
2806.78
3276.77
3496.29
3955.98
3894.28
4912.87
5653.65
3834.68
3492.91
2048.59
986.162
554.064
235.036
78.1393
26.3875
2.73981
-1.31041
4.8776
4.83076
-1.43008
17.05
34.7078
124.858
60.6211
6.2624
0.300567
-6.80476
-4.57481
-2.39278
-2.3205
-1.60074
-1.51211
-2.17505
-2.56175
-4.01895
-5.55395
-9.20123
-6.15747
-7.35323
-5.36226
-5.35339
-3.70032
-3.2344
-2.84884
-2.49038
-1.91417
-1.9074
-1.98644
-2.02309
-2.04323
-1.9401
-1.76713
-1.67778
-1.67737
-1.81351
-1.79993
-1.76095
-1.88322
-1.83095
-1.74865
-1.84384
-1.79693
-1.74886
-1.92108
-2.13527
-2.11957
-2.20653
-1.55904
-2.13606
-1.96852
-2.02108
-2.30942
-1.8129
-2.78801
-2.62821
-3.0929
-3.76304
-5.19088
-3.3981
-4.34966
-6.14149
-3.84679
-17.0894
34.7169
172.59
357.324
1468.76
2912.29
5171.11
9313.02
12238.3
13572.8
10313.1
6752.63
4924.3
4631.75
4939.64
4267.55
4881.43
4230.81
4253.81
5228.89
5413.42
4527.46
4028.48
3509.8
2343.22
1105.52
380.597
80.822
75.5459
67.1216
40.5907
36.1468
36.1554
45.3057
28.8305
8.8216
7.16185
6.89598
6.78291
1.2333
0.858414
6.84273
2.80269
-0.494567
-4.02313
-2.24505
-6.35301
-12.1667
-24.4684
-24.5522
-24.5953
-27.3588
-31.2656
-22.7163
-18.1849
-24.3929
-24.8148
-23.4017
-13.4527
-29.6942
-10.9903
-7.10912
-27.17
-27.2096
-20.8427
-20.3418
-15.7392
-20.0452
16.581
16.5666
30.2412
53.8272
89.2597
85.4314
-64.7168
-294.159
-653.893
-970.618
-836.699
-1131.08
-972.356
-1176.58
-1117.15
-1010.44
-1118.07
-984.915
-1089.85
-957.126
-831.08
-711.287
-518.99
-290.652
-168.594
-62.5086
-27.8497
-9.58979
-6.5101
-8.12316
-37.658
-64.2155
-59.4885
-6.86998
-15.5408
-11.2419
-7.78844
-5.80037
-4.91086
-4.44153
-3.45767
-3.19712
-2.86524
-2.54235
-2.80425
-2.53201
-2.77366
-2.28478
-2.65732
-2.19648
-2.43502
-2.72879
-2.3063
-2.56001
-2.77696
-2.30966
-2.47348
-2.72884
-2.28081
-2.47844
-2.65365
-2.68649
-2.74797
-2.82757
-2.4624
-2.7008
-3.08509
-2.89577
-3.1371
-3.52527
-4.4857
-5.61882
-5.90265
-8.09661
-13.4086
-6.17351
-10.8296
9.55819
0.686559
225.188
1446.45
1801.78
6350.57
5933.48
10551.2
6220.88
8328.71
3960.43
4624.88
3444.87
2176.46
4381.23
2517.49
2243.89
4522.99
3043.6
1928.78
3320.46
2066.96
836.459
242.494
24.9831
-0.998447
15.8049
19.0458
12.7188
20.96
94.9546
123.359
362.318
711.66
1385.27
1262.28
3007.21
4403.37
7826.19
6598.37
9955.86
11932.3
15074.4
14368
15534.4
17526.4
16396.1
17153.3
19371.4
20333
20115.4
19364.2
16759.6
16062
16779.6
14050
12906.1
12404
8735.55
7057.06
5316.14
2928.2
2217.74
1620.6
1077.29
656.936
276.003
181.529
192.644
109.867
50.7989
31.3812
57.8234
40.6064
28.3676
43.9849
67.94
14.0185
43.5621
108.198
76.8203
21.9414
3.60957
12.4808
63.802
258.474
656.884
1016.38
426.839
343.196
421.924
656.044
313.238
310.046
184.137
150.754
421.024
328.136
346.565
374.302
393.338
635.456
675.573
1062.18
872.093
957.61
1312.49
1412.98
1402.33
611.551
147.582
82.6267
25.0988
-14.4645
-22.7373
-13.985
-12.4716
-21.626
-23.0272
-8.86554
-9.43083
-15.8845
-12.7082
-8.56428
-10.032
-10.694
-7.27847
-5.56488
-5.31176
-5.49666
-5.52323
-5.9702
-5.12656
-4.53316
-4.08544
-3.58213
-3.1003
-3.52705
-3.51289
-3.07122
-3.46355
-3.45438
-3.01895
-3.39598
-3.38165
-2.87799
-3.10058
-3.46579
-3.45528
-2.98581
-3.34531
-3.32493
-3.47443
-2.93637
-3.13531
-3.51517
-3.48255
-2.92951
-3.02685
-3.07346
-3.17912
-3.26915
-3.38867
-3.4952
-3.56876
-3.8514
-4.31686
-5.42949
-5.72787
-5.64366
-6.69011
-8.96186
-14.4609
-15.7007
-26.7472
-25.9686
-35.5776
5.25253
450.863
304.962
879.315
1973.79
1207.83
1734.11
3841.07
2054.55
1760.9
2798.71
1772.67
1609.43
2227.13
1481.32
985.874
1124.26
1646.19
1209.14
1602.33
1113.53
1690.55
1308.24
600.081
733.144
1191.13
499.983
101.365
1.88987
-7.6536
2.27231
10.3284
55.6693
195.024
329.732
820.16
2107.79
1299.27
538.97
346.9
512.138
640.9
1059.04
2268.88
2828.95
8113.99
5039.42
7051.1
11928.5
8426.24
5368.33
3239.68
3289.02
3069.57
3134.4
5440.75
8526.65
13075.4
16727.6
13045.8
18025.3
12639
7894.28
4828.02
4854.71
4819.48
4806.4
8097.34
12494.3
16765.9
10559.8
8534.86
9743.5
7419.34
6796.87
7162.04
5111.12
3235.39
3140.65
3302.31
1875.25
1128.1
671.249
391.082
109.006
14.8965
-25.9186
-17.9312
-14.909
-13.1688
-7.40998
-32.9261
-1.58911
9.13348
34.3421
36.8414
66.6002
113.905
114.824
-82.3153
-379.258
-741.476
-997.133
-861.166
-858.147
-693.214
-644.874
-662.55
-808.047
-747.255
-734.563
-886.608
-918.215
-1201.95
-1332.71
-1534.16
-1739.22
-1730.29
-1647.02
-982.532
-538.851
-192.684
-117.983
-37.8735
-115.506
-265.263
-1311.41
-318.773
-19.2874
-12.1748
-13.0047
-9.28923
-7.73675
-6.78615
-5.63074
-4.93641
-4.34269
-3.9871
-4.24147
-3.91246
-4.14051
-3.84328
-4.06496
-3.56063
-3.33512
-3.55578
-4.33692
-3.93909
-4.13676
-3.80873
-3.98197
-4.17221
-3.64347
-3.4349
-3.639
-4.41402
-3.98592
-4.13492
-3.60627
-3.70551
-3.8399
-3.96072
-4.15823
-4.2734
-4.48943
-4.77868
-5.46527
-5.92236
-7.93331
-9.12095
-8.1909
-9.77952
-10.8638
-9.88398
-17.04
-19.9591
-30.5748
-29.6986
-329.54
-27.2589
3.19194
326.151
-449.828
-1436.98
-1027.4
-1616.57
-147.919
-701.964
529.366
-112.271
960.508
430.274
58.7784
-683.646
221.09
-340.497
503.837
-120.413
-411.089
582.089
163.636
45.7894
-509.076
-114.579
-190.907
232.64
22.9202
-8.71898
-20.8505
-6.19295
2.498
30.7222
137.266
-40.9964
-40.1742
-13.8753
-11.4368
-10.583
-15.6352
-83.8305
-100.634
-272.269
-354.125
-218.413
-93.8747
-18.6264
-11.9232
-23.779
-31.8219
-94.5964
-183.628
-303.853
57.2284
169.148
156.863
221.927
320.49
452.609
840.519
593.53
811.678
1475.39
854.816
815.367
540.064
389.28
612.904
410.963
213.367
129.707
114.385
79.1334
46.9768
36.4323
12.4844
5.47722
-10.2216
-29.3356
-55.8879
2.59327
-23.1481
-23.8245
-27.8168
-23.6826
-24.2666
-23.4953
-39.0278
-3.94359
-16.1787
-21.2949
-29.0002
-55.0345
-42.0348
-58.7865
-279.083
-297.876
-456.176
-426.82
-2488.64
-2907.97
-2596.04
-2380.52
-1470.91
-1391.48
-2273.98
-1993.57
-1110.5
-775.33
-380.003
-238.522
-83.9222
-24.6125
-45.2379
-41.0997
-28.5364
-28.2495
-21.4239
-19.9179
-17.4378
-14.0925
-12.2343
-10.5215
-8.68807
-7.38008
-6.41656
-5.4621
-4.67738
-4.99798
-5.50107
-5.41954
-4.57521
-4.79814
-4.26625
-4.43206
-4.58302
-4.79923
-4.94067
-5.24596
-6.26424
-6.78686
-8.63107
-10.3817
-10.445
-12.312
-11.4965
-20.7564
-23.809
-27.6888
-235.521
-289.784
-877.951
-1684.58
-2129.57
-1850.18
-1538.19
-1219.63
-934.237
-959.476
-824.103
-656.802
-676.673
-718.54
-607.868
-661.601
-568.809
-547.671
-736.808
-478.888
-192.117
-2.38546
-56.1046
-55.7904
-70.2377
-194.517
-308.934
-679.748
-1075.8
-616.201
-893.601
-364.905
-186.149
1654.03
3291.1
843.257
-628.786
-1009.11
-1455.94
-1794.45
-2265.48
-2294.38
-1537
-1277.8
499.56
1588.1
567.752
1525.21
-27.6372
1453.67
5273.62
2905.54
1389.95
-504.885
-1524.5
-2044.47
-2641.96
-2892.13
-3071.77
-3140.94
-2257.84
-1739.71
-590.262
1372.15
2881.76
3277.42
5668.39
8021.64
8286.93
6452.33
5271.09
3364.27
1954.08
1092.46
655.543
405.182
141.037
115.261
17.3351
-15.7987
-47.8711
-2.01967
-17.3765
-16.6385
-15.2594
-8.61867
-17.8028
-0.198867
-4.76816
-55.2469
-196.819
-432.024
-2263.73
-1817.87
-1695.42
-1913.28
-1625.02
-1958.52
-1798.96
-1645.18
-1360.24
-966.592
-571.655
-243.01
-499.18
-1003.25
-2387.55
-970.74
-125.865
-24.4035
-17.311
-12.4441
-11.1322
-10.6463
-9.86894
-8.48346
-7.46782
-6.85237
-5.75299
-4.95617
-4.48386
-4.88178
-5.4004
-5.35655
-4.56853
-4.97909
-4.41555
-3.60151
-3.84446
-4.1188
-4.55415
-5.42021
-6.46866
-6.84768
-5.74094
-6.00135
-4.98077
-5.22591
-5.43801
-5.77886
-7.12039
-7.91312
-9.37277
-9.84414
-11.9476
-15.0536
-12.6567
-13.5047
-20.9794
-8.82396
-111.379
-355.242
-994.469
-2081.25
-450.822
-1474.01
-1693.39
-2130.19
-1343.29
-1406.07
-959.702
-957.798
-1087.16
-995.771
-856.366
-883.83
-792.304
-701.423
-606.837
-655.582
-922.883
-862.4
-1022.63
-1112.67
-1031.17
-961.877
-578.625
-241.373
-34.542
-117.111
-82.3211
-129.034
-367.838
-670.157
-830.209
-414.77
-148.497
-311.79
-624.348
-1195.06
-1752.23
-1082.06
-1622.87
-1470.37
-2063.41
-1300.12
-467.117
-336.879
-396.2
-653.056
-2408.66
-2932.57
-3389.95
-3669.29
-3304.3
-3783.81
-3987.77
-4423.15
-4838.73
-3838.51
-4230.56
-3907.28
-1183.31
-1327.07
-1377.55
-4142.17
-3276.92
-3253.53
-2434.13
-1729.73
-542.798
1311.77
4677.98
4619.53
7786.31
12832.7
17671.2
9595.86
7301.4
6974.23
6704.25
4796.19
3022.66
3047
3214.87
1803.61
1004.25
563.603
309.309
78.9618
-9.88152
-2.05596
-10.2495
-4.74875
-1.805
-9.5462
4.91389
72.6869
127.278
234.271
224.671
-174.634
-558.119
-823.946
-978.11
-1011.6
-1073.59
-892.094
-803.639
-658.295
-640.655
-763.747
-846.739
-1432.29
-1810.72
-1778.39
-2231.03
-2098.78
-2484.16
-2388.4
-2680.87
-2525.67
-2420.41
-1683.44
-1326.08
-1020.78
-557.778
-279.214
-73.8962
-272.792
-526.673
-919.72
-491.753
-24.5486
-0.27288
-13.3807
-10.2004
-10.16
-8.66543
-7.86231
-7.01936
-6.04302
-5.22011
-4.6138
-3.79921
-4.02937
-3.25266
-1.57743
-0.850604
-0.758414
-0.66854
-0.615458
-0.576293
-0.542634
-0.576603
-0.67624
-0.862665
-0.799395
-0.919933
-1.35125
-1.5588
-1.52408
-1.27151
-1.57488
-1.80884
-1.82961
-2.4056
-2.54788
-2.80108
-3.02619
-3.89136
-3.9746
-3.67673
-3.45191
-3.67717
-3.98713
-4.74845
-5.27883
-5.93635
-6.19266
-7.18807
-8.09514
-9.49995
-10.0838
-11.6372
-15.8419
-16.0867
-51.4927
-594.279
-417.219
-257.107
-38.8428
-255.254
-619.298
-1351.62
-2472.85
-1852.04
-2643.83
-2220.75
-2274.22
-1580.47
-1674.93
-1193.05
-1316.92
-929.135
-1046.84
-763.698
-365.577
-360.052
-311.461
-990.17
-1792.61
-2323.07
-1753.46
-2109.3
-1699.32
-1803.21
-1508.67
-1655.86
-1731.29
-2073.85
-2151.32
-2559.87
-2866.24
-3252.84
-2950.56
-2378.42
-1432.69
-842.393
-1069.48
-1693.1
-3095.83
-1082.86
-178.951
-13.5653
-19.426
-13.646
-13.1936
-12.2721
-11.5802
-10.9804
-9.96436
-8.5851
-7.48321
-6.57108
-5.59261
-5.50726
-5.45864
-5.99841
-7.04245
-6.37582
-6.97353
-5.81982
-5.43375
-5.27662
-5.80747
-6.83097
-5.79939
-7.28512
-7.84649
-8.24027
-7.14448
-7.58512
-6.34936
-6.61952
-7.84883
-8.37998
-9.4709
-11.0019
-12.0935
-13.3197
-13.9025
-17.4539
-28.3253
-10.9324
-11.1652
-12.5612
-19.8913
-63.8729
-166.259
-511.595
-680.019
-3153.48
-3181.57
-2323.57
-1773.71
-1461.74
-1398.99
-2147.61
-1881.11
-1133.57
-1995.66
-1581.87
-1663.17
-1365.88
-1072.03
-611.577
-332.639
-97.2073
-210.863
-345.814
-66.6728
-448.961
-839.39
-781.699
-1405.34
-1987.83
-2222.11
-2097.3
-2267.8
-2281.04
-2860.31
-3681.79
-2756.56
-2298.06
-2458.59
-771.894
-568.775
-572.941
-459.171
-419.649
-407.088
-260.557
-154.5
-106.455
-108.4
-13.2684
-89.064
-79.223
-646.777
-1285.5
-1586.9
-799.093
-449.461
-108.395
-440.399
-837.511
-360.46
-765.332
-1277.94
-2164.05
-2759.06
-2492.73
-3521.51
-2519.58
-3061.98
-4486.78
-4695.22
-3587.97
-3553.89
-4490.46
-5078.33
-5623.32
-5912.3
-5479.97
-4950.63
-1612.07
-1290.22
-1213.13
-883.171
-803.944
-787.808
-1675.98
-5090.98
-3867.93
-3772.59
-4781.5
-5758.51
-6615.44
-6858.97
-6499.37
-6030.65
-2171.18
-2201.58
-2664.89
-6719.88
-6155.45
-6170.02
-5665.84
-5566.77
-6033.22
-4792.12
-4928.58
-4875.85
-4330.82
-4130.44
-3166.68
-3084.76
-2233.21
-1447.34
-102.448
1195.88
4812.93
2597.95
2467.56
4829.25
8169.57
12130.7
16185
7851.95
7769.81
4853.12
5847.93
4133.85
2467.76
1411.21
802.113
363.77
146.894
55.5007
14.9157
-3.51351
-3.07806
-2.80012
-4.28171
1.68681
-10.1588
-16.9446
-25.4571
-47.3012
-81.3751
-193.746
-567.162
-706.692
-594.597
-815.894
-978.693
-966.991
-1122.37
-1767.9
-1944.03
-2449.86
-2287.08
-1921.32
-1722.41
-1644.82
-1400.18
-1472.26
-1718.15
-2233.57
-2657.88
-2861.41
-3511.47
-3595.46
-4065.27
-3799.78
-3152.38
-2983.76
-1799.96
-1194.9
-1519.2
-2144.12
-3631.28
-1561.64
-438.698
-39.7355
-10.911
2.52649
-13.9195
-13.5605
-14.9009
-13.08
-12.327
-11.0633
-9.35101
-8.21234
-9.26963
-9.23665
-7.93261
-8.69083
-8.64829
-9.75665
-11.6215
-9.52173
-8.05643
-8.67051
-9.54979
-9.3531
-9.82281
-10.3092
-8.72169
-9.00706
-10.4305
-10.4598
-11.4652
-13.7949
-18.6929
-18.1277
-13.5186
-13.8185
-31.5956
-215.681
-324.446
-466.359
-1872.6
-1790.87
-2462.49
-3710.99
-3250.43
-4806.83
-3878.47
-2727.85
-2042.91
-1925.54
-1725.06
-1460.05
-1503.59
-1709.6
-1430.34
-1171.15
-1085.74
-1452.2
-1379.29
-1494
-1543.71
-1603.72
-1925
-2018.81
-2494.63
-2787.02
-2435.32
-3351.95
-4199.8
-3273.56
-1960.3
-775.554
-290.15
-73.3797
-198.717
-363.983
-1247.54
-2432.32
-2754.1
-3423.85
-3905.43
-3334.47
-3522.67
-3287.63
-2995.43
-2558.01
-2472.63
-2052.88
-2272.59
-2071.99
-1905.66
-1768.64
-1353.22
-589.429
-1120.73
-1713.24
-2763.28
-3503.24
-1076.41
-733.173
-314.184
-291.849
-248.264
-108.16
-105.975
-86.1946
-133.044
-63.4111
-14.4321
-7.05247
-20.0865
-21.7977
-42.9102
-4.75339
-33.7063
-57.7461
0.775235
-52.5641
-331.702
-1921.85
-2991.1
-7466
-7342.59
-6895.44
-6301.31
-5942.9
-6698.36
-6912.7
-8030.29
-7958.31
-8345.94
-8311.78
-8687.99
-8641.65
-8240.52
-6625.06
-6701.05
-7609.94
-2791.25
-3871.65
-9006.15
-9164.77
-8512.85
-8203.83
-7554.66
-8050.2
-7377.52
-6990
-5495.65
-5645.9
-6411.69
-2374.32
-3278.07
-2907.49
-3664.11
-8463.02
-8398.65
-7856.02
-7332.29
-7073.98
-7265
-2982.94
-2221
-2478.35
-1443.45
-612.471
-227.401
-1219.53
-1630.24
-1967.85
-2153.61
-2047.41
-5904.34
-6021.29
-4800.29
-4689.74
-4015.99
-3712.41
-4204.66
-3927.73
-2892.6
-2681.7
-1905.32
-1044.32
256.386
2450.55
2353.49
4519.17
7669
10381.1
5885.45
3712.03
2278.18
1031.8
317.261
290.695
742.496
1679.4
2420.14
5040.99
1921.08
1731.42
2698.82
4857.31
4147.46
4394.96
3122.53
2144.66
528.585
1527.06
3134.06
5857.18
4461.22
1168.26
522.51
252.277
96.0637
27.1178
4.73869
-2.59132
-3.54373
-0.0352762
-2.00088
-4.85655
-5.56464
1.61208
45.5589
14.9261
-14.6101
-26.8039
-91.882
-69.4451
-126.592
-186.711
-271.026
-238.791
-630.128
-1086.26
-1048.44
-1220.57
-1819.64
-2169.19
-1875.04
-1994.51
-1896.89
-1701.62
-1766.06
-2282.37
-2651.7
-2490.85
-2467.36
-2860.87
-2828.55
-2998.54
-3674.49
-3451.33
-3307.8
-2514.27
-2624.83
-2068.83
-1633.48
-1220.24
-1276.73
-1800.61
-2914.45
-1265.11
-747.605
-235.639
-76.1579
-0.105081
-19.0724
-20.2579
-17.3803
-17.7832
-17.1667
-14.0609
-12.5326
-11.3421
-9.56058
-10.4778
-11.7373
-13.7741
-15.0181
-14.6786
-12.2226
-10.1451
-10.4738
-11.1984
-12.8647
-11.2423
-11.6157
-12.0619
-12.1053
-13.9231
-12.2265
-12.5909
-13.9618
-18.4878
-139.632
-106.12
-365.156
-1353.86
-2673.56
-3289.38
-3168.29
-4001.34
-4574.68
-4490.76
-4955.46
-4076.9
-4489.58
-4239.52
-3314.68
-4271.86
-3536.66
-2958.12
-2794.39
-3098.27
-2413.38
-2359.02
-2049.26
-760.1
-644.16
-1317.64
-1973.04
-2972.63
-3773.59
-2427.87
-1626.89
-2181.47
-3179.39
-4405.31
-5791.34
-4049.21
-2866.32
-1719.1
-2324.48
-2834.32
-2668.93
-3037.85
-2100.78
-3448.24
-4743.56
-6121.29
-6334.16
-4652.2
-3503.86
-2226.87
-3285
-2756.06
-3006.05
-3193.08
-3833.83
-3464.45
-2864.23
-2735.74
-3268.23
-3884.44
-4061.07
-4496.38
-3816.11
-4332.64
-4753.36
-4915.81
-4862.12
-5079.25
-5328.97
-4403.17
-3928.83
-2067.02
-3107.52
-671.497
-587.392
-1175.19
-4811.41
-994.44
-1410.67
-1177.67
-1538.18
-4343.41
-4254.11
-4041.71
-3619.92
-3226.65
-3036.22
-3159.62
-2709.17
-3177.53
-2190.94
-3407.6
-4566.2
-6000.72
-2241.24
-1900.21
-2348.1
-1522.63
-1126.5
-660.483
-1122.31
-1629.66
-4320.91
-3178.1
-3837.39
-3549.72
-2997.89
-3347.77
-2884.86
-3667.66
-2675.49
-4051.15
-5107.41
-5284.93
-4836.49
-4323.02
-3048.33
-3556.12
-1161.84
-1008.55
-418.499
-715.028
-984.025
-2804.91
-4124.89
-4431.48
-5437.5
-5951.41
-5690.92
-5648.34
-6416.84
-6531.02
-6930.91
-3061.45
-2455.68
-2218
-1914.34
-2372.11
-2006.28
-4861.68
-5186.66
-5146.84
-5585.07
-6031.09
-6589.74
-6528.7
-6671.33
-7130.13
-6800.83
-2754.71
-2648.42
-2411.94
-2301.85
-5288.05
-5175.16
-5655.46
-6241.25
-6062.17
-5388.63
-5665.54
-6362.78
-6980.42
-6674.86
-2726.69
-2605.37
-2276.01
-1899.66
-4962.85
-4315.35
-4085.42
-4313.62
-4471.72
-3932.19
-2683.77
-3173.45
-3238.68
-2501.2
-2254
-2862.49
-3018.43
-2486.17
-2632.27
-2849.85
-2271.59
-1639.72
-1570.02
-2333.31
-2068.88
-1775.91
-1742.42
-976.416
-475.478
-272.741
-227.915
-110.384
-70.9888
-55.7419
-57.9972
-47.4248
-42.1482
-32.9042
-29.1811
-22.7652
-19.5035
-15.8383
-16.1372
-17.6967
-21.2259
-18.4087
-18.7632
-15.3072
-15.7222
-13.2587
-13.6962
-15.9382
-16.3433
-18.794
-18.6083
-26.4142
-38.1677
-201.292
-462.565
-1560.15
-1864.09
-3172.87
-3366.59
-3915.3
-3704.07
-3764.41
-4490.36
-4155.62
-4257.6
-3765.47
-4217.47
-3132.73
-3366.85
-3743.8
-3080.02
-3698.2
-3386.69
-3226.36
-3555.39
-2837.76
-3840.9
-4126.43
-4332.31
-4354.58
-1474.08
-1755.52
-1391.44
-4252.68
-3370.75
-2558.95
-3562.96
-4076.04
-4452.46
-4751.69
-4968.75
-5109.84
-4779.95
-4610.58
-4089.45
-3409.4
-2411.32
-2685.78
-2145.34
-2787.9
-2424.26
-2236.46
-2366.98
-1998.53
-1656.36
-1223.8
-1088.8
-1391.97
-1561.06
-1094.03
-852.949
-742.179
-611.908
-305.936
-275.712
-182.744
-9.70175
-14.1119
-67.022
-67.6486
-61.8797
-51.5396
-45.2576
-36.4039
-31.2198
-24.9724
-22.7259
-21.8199
-21.7215
-18.8744
-18.61
-20.5937
-19.1669
-9.11768
-30.4461
-146.972
-278.742
-987.184
-860.218
-1277.15
-2502.58
-2262.34
-2293.52
-3343.11
-3138.92
-3166.57
-2868.19
-3439.73
-3963.9
-3257.67
-3464.06
-3615.2
-3200.49
-3159.54
-2935.43
-3051.22
-2466.66
-2902.6
-2889.89
-2431.83
-2275.52
-3102.42
-3308.54
-3821.81
-3874.68
-4069.67
-1899.62
-1691.2
-1453.13
-1393.23
-3055.05
-3355.15
-3197.87
-3429.56
-3381.61
-3720.09
-4131.46
-4289.35
-3935.77
-3858.67
-4076.07
-1779.77
-1549.38
-1363.73
-3406.03
-2952.64
-2152.49
-2180.79
-2335.29
-1523.04
-2183.51
-2045.79
-1542.22
-1830.32
-1447.84
-1159.27
-998.517
-1306.33
-1235.58
-1340.81
-883.054
-804.573
-732.352
-544.138
-539.532
-285.814
-62.774
-219.614
-141.486
-132.827
-105.913
-75.959
-68.2794
-54.0497
-42.8465
-36.9255
-30.8413
-26.6169
-26.0637
-23.6059
-25.4004
-12.8101
-90.5929
-201.605
-417.231
-706.415
-887.246
-1231.29
-2278.34
-1865.11
-1980.22
-1948.8
-2673.1
-3224.71
-3111.25
-3202.79
-3717.06
-3341.63
-2734.53
-2848.88
-3046.4
-2485.3
-2403.83
-2626.54
-2553.83
-2446.45
-2170.21
-2846.35
-2804.33
-2677.82
-2987.06
-3052.51
-3049.62
-3037.52
-3136.43
-3001.59
-3411.61
-3219.72
-2754.77
-2123.36
-2250.19
-2391.44
-1246.96
-1496.43
-1548.55
-1307.92
-1782.54
-1594.14
-1267.88
-1130.77
-1499.53
-1327.31
-774.641
-546.409
-746.294
-325.376
-413.666
-504.209
-379.34
-534.439
-532.8
-517.103
-394.983
-246.025
-250.882
-151.473
40.6148
-42.698
-50.2138
-52.755
-48.1088
-37.9717
-30.2675
-24.7922
-25.8278
-31.049
-107.547
-156.672
-240.949
-509.201
-692.372
-752.343
-959.23
-1079.52
-1613.86
-2264.4
-1988.35
-2560.58
-2800.79
-3117.76
-2570.06
-2590.63
-2930.54
-2578.41
-1823.31
-1500.9
-1708.04
-2348.49
-2323.25
-2127.84
-1686.63
-2170.49
-2153.79
-2224.32
-2485.07
-1163.66
-1607.13
-1319.51
-1244.79
-1972.62
-1903.14
-1931.6
-2254.97
-2485.38
-2547.81
-2524.7
-2523.44
-2231.98
-2299.42
-2485.31
-2894.95
-2792.64
-2149.57
-2215.57
-2343.96
-1535.07
-1434.57
-1356.77
-1530.18
-1814.75
-1609.05
-1431.11
-1314.49
-1608.06
-1491.45
-959.856
-522.397
-316.025
-437.546
-589.74
-588.726
-561.259
-713.886
-677.335
-673.567
-755.39
-653.42
-461.934
-297.703
-222.584
-156.565
-125.306
-25.4513
-16.5401
-14.6097
-35.7574
-109.898
-481.424
-373.675
-609.864
-504.287
-713.958
-597.493
-519.081
-784.332
-603.036
-675.942
-2647.27
-2550.71
-2814.85
-2685.35
-2383.53
-2270.7
-1841.11
-1681.08
-1505.72
-1365.46
-1447.58
-2004.85
-1959.99
-1951.2
-1587.22
-1357.93
-1581.2
-1726.48
-1853.64
-2100.06
-2046.78
-2027.03
-2204.45
-2425.94
-1950.02
-2048.89
-2108.71
-1588.28
-1773.06
-1325.31
-1268.94
-1242.22
-1052.17
-1252.55
-899.371
-1131.58
-1166.66
-1123.51
-1149.12
-1175.83
-1487.61
-661.524
-774.123
-497.564
-351.423
-453.496
-416.718
-555.79
-618.882
-692.044
-811.115
-1204.85
-1084.97
-1115.52
-1246
-1511.36
-224.735
-303.437
-481.6
-496.432
-507.322
-535.86
-525.665
-1215.46
-1803.22
-1658.41
-1663.53
-1683.5
-2003.28
-618.951
-584.529
-2097.37
-2112.43
-1710.62
-1825.93
-1608.36
-1363.27
-1262.91
-1456.44
-1391.17
-1445.87
-1668.05
-1779.48
-1641.39
-1944.47
-1659.46
-1655.64
-1923.41
-1919.51
-1884.26
-2073.16
-1644.62
-1663.45
-1312.76
-1489.34
-1143.83
-1521.09
-1243.64
-1287.28
-1010.72
-1042.75
-1007.3
-917.061
-819.183
-901.373
-659.723
-538.56
-417.012
-510.652
-473.737
-691.832
-692.987
-1055.27
-1034.8
-990.92
-1085.18
-1229.91
-1429.39
-1687.62
-1647.85
-1777.04
-537.326
-500.184
-349.766
-397.783
-464.401
-631.253
-1129.23
-1443.13
-1448.27
-701.726
-912.311
-1241.87
-1490.23
-1344.15
-1112.1
-1505.05
-1352.19
-1345.55
-1545.88
-1805.14
-1575.26
-1764.81
-1670.12
-1713.32
-1791.21
-1634.62
-1280.16
-1774.95
-979.132
-1739.01
-1439.83
-1173.14
-1338.59
-1041.45
-1053.16
-1138.57
-727.477
-1262.06
-1033.52
-648.465
-629.579
-570.807
-595.787
-762.774
-614.936
-968.714
-885.403
-1402.32
-980.488
-1060.02
-1350.99
-1275.25
-1455.7
-1356.46
-930.799
-1595.65
-1149.14
-1192.25
-1304.45
-1189.3
-1185.01
-1340.36
-1329.03
-1180.31
-1389.33
-1025.04
-1223.44
-1380.76
-1261.44
-1046.57
-1187.08
-1000.27
-1227.29
-1376.72
-1122.24
-1118.48
-1023.7
-1014.19
-1319.31
-945.373
-926.351
-933.148
-934.307
-813.647
-753.52
-897.723
-591.574
-637.946
-726.31
-702.999
-629.608
-841.298
-641.426
-775.993
-978.592
-530.717
-574.732
-578.641
-685.278
-787.231
-962.211
-1262.43
-1187.62
-1364.7
-1281.72
-1322.9
-831.229
-1090.37
-1209.1
-1336.83
-1141.81
-1239.3
-1311.08
-1315.17
-1344.51
-1412.16
-1384.43
-1435.12
-1294.7
-1308.36
-1160.33
-1148.77
-1176.65
-866.96
-1330.96
-1025.57
-963.568
-872.598
-872.049
-753.416
-726.799
-610.501
-642.663
-695.097
-566.399
-709.744
-783.344
-846.527
-676.775
-726.01
-650.051
-604.904
-690.622
-714.567
-701.119
-806.319
-893.332
-922.658
-901.761
-1386.7
-764.124
-864.975
-1494.6
-1362.53
-1435.39
-1510.13
-1529.66
-1579.46
-1618.7
-1613.9
-1594.84
-1545.56
-1470.78
-1352.43
-1319
-1348.58
-904.03
-1416.33
-1085.43
-1007.36
-890.892
-866.758
-760.674
-738.069
-619.064
-656.807
-720.805
-537.963
-592.227
-799.981
-866.596
-1232.04
-1011.73
-935.514
-920.29
-992.552
-989.116
-1500.05
-1776.76
-1158.5
-1807.25
-1737.37
-1803.78
-1888.69
-1915.18
-1964.23
-1992.42
-1984.2
-1950.12
-1934.07
-1832.72
-1706.44
-1658.19
-1654.94
-1090.85
-1650.26
-1271.33
-1182.48
-989.944
-958.622
-866.45
-853.788
-623.236
-667.595
-817.594
-1082.26
-819.898
-1090.75
-1209.35
-1632.88
-1704.55
-1242.45
-1279.5
-1741.32
-2484.06
-2411.1
-2909.74
-2229.49
-1696.64
-2313.21
-2285.38
-2365.44
-2455.52
-2486.11
-2537.2
-2559.31
-2555.17
-2510.41
-2500.27
-2388.97
-2249.38
-2176.24
-2132.56
-1494.58
-2042.52
-1655.51
-1538.2
-1285.54
-1226.96
-1083.57
-1136.85
-842.167
-908.265
-954.831
-1485.88
-1244.69
-1590.61
-1775.34
-2272.43
-3182.64
-3377.3
-3814.02
-3540.73
-2466.97
-3042.21
-3057.05
-3146.43
-3230.4
-3263.5
-3316.79
-3334.56
-3328.7
-3276.86
-3276.62
-3163.01
-3020.52
-2934.52
-2851.8
-2188.87
-2675.68
-2310.34
-2149.23
-1829.06
-1755.51
-1494.04
-1629.69
-933.575
-1272.56
-1692.62
-2172.04
-1985.75
-2358.16
-2626.21
-3837.23
-4389.47
-4611.58
-4988.08
-4841.09
-5203.92
-4007.68
-4047.59
-4146.79
-4217.15
-4246.32
-4308.81
-4313.1
-4315.16
-4261.91
-4265.92
-4161.74
-4023.21
-3924.02
-3823.67
-3198.67
-3571.48
-3246.51
-3040.63
-2686.83
-2552.43
-2175.39
-2310.82
-3263.49
-1796.59
-2063.25
-3095.93
-3142.69
-3535.23
-5128.23
-5403.43
-5863.84
-6075.43
-6369.3
-6356.26
-6603.7
-6640.48
-5259.46
-5355.89
-5409.43
-5433.38
-5505.68
-5508.86
-5510.67
-5448.51
-5464.37
-5370.6
-5248.49
-5156.46
-5053.52
-4523.46
-4772.34
-4505.38
-4270.46
-3909.53
-3727.01
-3220.13
-4945
-4857.94
-4086.34
-4123.31
-4688.77
-4853.51
-6749.65
-6927.21
-7176.72
-7527.21
-7707.78
-7963.91
-7969.81
-8155.95
-8177.42
-8263
-6736.33
-6778.74
-6792.39
-6867.84
-6853.72
-6867.39
-6813.5
-6839.07
-6764.59
-6659.97
-6569.75
-6487.68
-6098.84
-6199.64
-6023.06
-5798.86
-5518.32
-5334.63
-7184.09
-6914.21
-6834.55
-6436.39
-6367.03
-6628.84
-8701.64
-8748.64
-8826.02
-9040.7
-9295.04
-9437.38
-9643.52
-9678.12
-9808.65
-9812.4
-9887.18
-9930.5
-8299.21
-8306.56
-8380.03
-8375.86
-8396.4
-8331.16
-8373.05
-8307.04
-8219.97
-8161.22
-8052.04
-7830.79
-7835.85
-7715.3
-7525.74
-7330.33
-9252.68
-9143.01
-8975.58
-8909.85
-8682.98
-8620.85
-10807
-10770
-10733.7
-10739.5
-10939.2
-11135.8
-11249.6
-11430.6
-11477
-11575
-11574.6
-11628.3
-11695.1
-11710.4
-9935.03
-10000.5
-9961.43
-10005.6
-9974.55
-10033.7
-9951.13
-9874.74
-9863.67
-9751.91
-9599.8
-9547.65
-9505.2
-9366.91
-11312
-11240.4
-11134.3
-11042
-11001.3
-10882.9
-13063.1
-12918.5
-12783.7
-12622.8
-12692
-12891.7
-12967
-13091.1
-13280.6
-13399.8
-13398.6
-13423.5
-13504.5
-13613.2
-13532.4
-13723.1
-13571.3
-11708.4
-11782.6
-11791.4
-11899
-11728.7
-11652.5
-11785.9
-11641.4
-11490.2
-11405.5
-11434.8
-13505
-13279.5
-13343.2
-13200.5
-13109.1
-13052.5
-14758.8
-15268.3
-15013.6
-14686.1
-14304.1
-14770.7
-14954.3
-14605.4
-14842.8
-15219.2
-15441.1
-14976.4
-15153.7
-15516.4
-15686.3
-15084.2
-15517.4
-15726.5
-15955.8
-15438.6
-13726.7
-13938.3
-13733.4
-13651.2
-13892.5
-13699.9
-13528.7
-13354.7
-15558.7
-15382.4
-14911.2
-15550.9
-15327.5
-14977
-15850.1
-17377.9
-16907
-16891.6
-17124.1
-16010.8
-16929.3
-16548.6
-16604.6
-17045.5
-15950
-17266.9
-17031
-16977.2
-17429.7
-15975.8
-17519.6
-17218.6
-17178
-17543.5
-17687.7
-16119.5
-14953.6
-15608.1
-17259.7
-19315.7
-19327.1
-19468.4
-19522
-19529.2
-17465.3
-17414.9
-17630
-17935
-16225.7
-15735.4
-16021.8
-15905.1
-15667.4
-15482.2
-15858.9
-17313.6
-17312.2
-17592.2
-17405.8
-17082.1
-17116.1
-17453.4
-19265.3
-19328.7
-19006.2
-19014.7
-18956.2
-18613.3
-18592.6
-18678.6
-18819.4
-19103.1
-19106.2
-19026.5
-19334.5
-19303.7
-19255.2
-21184.8
-21278.5
-21383.8
-21386.9
-21465.9
-21605.2
-21587.8
-21640.7
-19714.4
-19697.8
-19526.6
-19755.4
-19491.1
-19502.4
-19391.3
-19439.2
-19383.8
-19272.3
-19186.1
-21138.1