/*--------------------------------*- C++ -*----------------------------------*\
  =========                 |
  \\      /  F ield         | OpenFOAM: The Open Source CFD Toolbox
   \\    /   O peration     | Website:  https://openfoam.org
    \\  /    A nd           | Version:  7
     \\/     M anipulation  |
\*---------------------------------------------------------------------------*/
FoamFile
{
    version     2.0;
    format      ascii;
    class       volScalarField;
    location    "18.8";
    object      p_rgh;
}
// * * * * * * * * * * * * * * * * * * * * * * * * * * * * * * * * * * * * * //

dimensions      [1 -1 -2 0 0 0 0];

internalField   nonuniform List<scalar> 
15142
(
-0.984197
-0.749085
-0.25874
-0.320836
-0.297504
-0.249671
-0.169816
-0.147645
-0.0911861
-0.00307548
0.0776174
0.0529586
0.0270055
-0.0234578
-0.0363086
-0.0408576
-0.0451832
-0.0432492
-0.0399636
-0.0480557
-0.0470211
-0.0479277
-0.0571106
-0.0542623
-0.0368624
-0.00734861
0.0235147
0.0383154
0.00195745
0.115906
0.136038
0.167912
0.221513
0.419347
-0.164415
-0.356647
-0.115039
1.50031
3.75166
0.508112
9.72861
19.3448
22.7639
86.9855
229.81
442.008
993.141
2229.71
2967.86
4316.11
5048.14
4703.2
4509.4
2970.48
2392.03
1945.11
1735.76
1430.45
1501.14
1366.31
1479.53
1649.25
1272.21
1353.46
941.302
796.609
420.317
193.785
103.272
49.7154
20.8418
26.0699
40.0477
31.9497
56.9062
144.23
352.26
424.984
837.316
1033.15
2031.29
3019.38
3543.21
4515.02
5461.31
5764.85
6947.07
6452.54
6504.59
6292.42
5879.34
5880.68
6137.01
6393.37
6188.92
6465.43
5269.58
4563.42
4039.97
2951.31
2453.78
1664.33
993.242
709.826
478.654
388.227
177.071
82.3658
86.4897
93.4156
55.2394
96.6534
252.625
451.129
774.476
1227.65
1807.99
1188.24
1110.74
639.12
588.945
654.061
712.072
643.179
837.189
815.241
1142.77
1033.63
785.664
763.368
668.342
955.946
818.181
1721.72
1735.03
2263.13
2092.24
2359.34
2686.38
1873.88
1615.9
935.955
618.467
393.37
177.35
75.4112
32.5144
12.9302
6.13028
9.46404
11.1418
16.2974
28.7993
75.7456
141.214
97.9691
46.1836
19.3055
3.71377
-1.74988
-0.0746434
-0.337072
-1.05094
-2.25847
-4.6902
-11.883
-0.777108
2.78841
14.9655
51.0681
77.5561
13.8818
30.4108
11.8049
4.95433
0.146943
-1.32766
-2.83295
-4.78954
4.39634
10.4055
32.9525
14.0472
75.5519
67.1715
235.964
294.837
518.86
382.195
792.539
604.334
864.196
668.021
806.616
265.43
418.996
881.299
439.481
325.513
574.985
314.455
280.328
460.783
235.869
210.096
458.572
208.726
142.617
293.025
217.988
201.848
132.05
252.469
199.97
212.309
193.413
340.883
257.035
406.365
281.845
451.357
279.709
133.924
21.3472
10.9829
-70.2932
11.9711
-1.33076
8.57296
19.4428
16.8661
11.3515
13.1083
-6.14839
3.73694
67.0201
178.597
242.271
86.0387
112.15
152.9
47.8112
74.227
142.718
46.5667
99.4256
206.672
90.0737
192.661
107.768
230.678
147.669
305.192
205.331
497.846
324.282
169.373
98.7552
112.555
65.2433
75.0377
42.7529
53.0299
32.0935
45.65
26.8281
4.70823
9.54388
2.12672
22.0193
19.6612
54.7643
141.553
234.629
436.015
248.595
169.998
50.6475
75.6004
120.166
172.879
63.72
50.5351
37.5917
4.82738
8.32381
19.1784
18.8862
24.853
7.67198
7.92587
-1.33524
-0.935535
4.24248
-7.79529
-14.7399
-15.7983
-8.49026
-3.94875
-1.04694
5.74402
-2.17796
-6.57987
-1.46559
21.6304
18.0791
69.7466
80.3027
55.0327
47.4064
44.353
4.94952
-0.521392
0.408227
-5.40716
-4.71077
-6.23264
-5.40406
-7.83937
-3.60153
-4.335
-5.82664
-3.26387
-1.36218
-1.3615
-1.45528
-1.81465
-1.82191
-0.455436
-0.439287
-0.115968
-0.389066
-0.341555
-0.249825
-0.125561
0.00949645
0.225556
0.233215
0.250496
0.0790523
-0.0116125
-0.021709
-0.0130331
-0.00587069
-0.00412991
0.00230987
0.00365593
-0.00770327
-0.00701899
-0.0123968
-0.0285239
-0.0397784
-0.0675927
-0.0632144
-0.0310208
-0.164842
-0.24099
-0.245198
-0.118403
0.0406069
0.0998524
-0.113445
-0.75603
-0.764522
-1.32919
-2.7281
-1.86609
-2.92041
-0.991777
4.14328
2.88159
64.8247
236.924
475.873
1411.79
2886.6
4819.39
7711.38
9633.86
9872.63
8054.58
5354.3
3842.11
3599.19
3435.85
2492.71
2272.82
2732.42
3719.04
4105.66
3069.98
2995.45
2506.63
1732.18
911.103
371.608
118.244
95.9852
31.2238
27.6208
46.8332
36.3172
96.2612
264.049
480.113
565.678
1817.79
2369.06
3608.85
6331.23
7721.55
10935
10929.2
11503.3
13779.4
12756.5
13177
13602.2
13386.9
13304.6
13539.7
12959.2
12441
13195.7
10509
9706.74
9502.79
6446.8
5394.34
4296.74
2230.9
1624.83
1267.76
851.421
464.601
206.674
122.034
130.004
108.373
176.896
547.086
550.512
1660.23
2945.4
3235.36
2618.83
2821.69
2042.62
1910.95
1792.79
1807.88
1701.07
1758.04
1982.78
2531.04
2359.54
2213.26
2467.15
2660.61
2938.84
3246.79
3702.62
3850.19
4214.89
4238.56
5413.17
6156.32
4345.47
3826.08
2268.03
1143.54
636.332
269.023
91.2629
32.6978
6.34833
1.52747
6.86871
6.95874
1.49151
19.0103
37.736
131.289
64.8305
8.47686
1.79733
-5.40524
-2.71303
-0.42451
-0.837964
-0.36758
-0.393588
-0.354785
-0.37835
-1.20762
-1.32552
-5.72207
-2.19185
-2.85416
-1.23951
-1.19633
-0.0725116
0.0776117
0.371344
0.514375
0.475295
0.41962
0.0321338
-0.0223951
-0.0539693
-0.0592508
-0.0045674
0.0299599
0.0330713
0.0439038
0.0526882
0.0494027
0.0377755
0.0408642
0.0293973
0.0122805
0.00136919
-0.0292077
-0.0283983
-0.117057
-0.145635
-0.174904
-0.0851575
-0.227148
-0.282543
-0.359364
-0.255393
0.0524627
-0.566022
-0.545938
-0.941986
-1.62111
-3.2408
-1.35321
-1.62124
-2.12121
2.92491
-7.12203
54.3553
211.653
432.36
1629.33
3189.05
5714.96
10133.6
13579.2
14912
11156.5
7251.42
5244.38
4944.56
5584.91
4560.04
5102.82
4534.06
4829.97
5840.72
6016.22
5174.57
4482.45
3854.93
2737.71
1257.85
433.678
102.453
94.1494
84.079
48.19
40.4222
42.3421
53.131
34.5508
12.5666
9.74938
9.70988
9.27844
2.502
2.42313
8.22721
3.75236
0.190249
-3.37534
-1.60432
-5.61932
-11.4116
-23.6983
-23.7554
-23.6664
-26.3554
-30.2623
-21.784
-17.3683
-23.6216
-23.9567
-22.5385
-11.3948
-27.8404
-6.50204
-0.47343
-24.8985
-24.5201
-20.0551
-18.9968
-14.923
-17.6911
18.8306
18.8936
32.9161
68.8363
126.859
186.438
120.03
283.856
809.556
550.158
956.019
776.678
1058.75
852.302
841.542
960.766
806.093
930.289
859.035
748.398
-73.3101
-154.631
16.3571
-16.9662
-95.6881
5.44284
-2.17723
0.638762
-1.48536
0.612925
61.422
254.543
-15.8849
-1.86711
-10.8961
-6.66895
-3.30427
-1.44772
-0.627818
-0.516088
0.0611052
0.0964035
0.0195616
0.025775
0.00887207
-0.0340013
0.0487988
0.133725
0.0834785
0.0946539
0.122432
0.123385
0.112252
0.11999
0.107512
0.0904003
0.0883047
0.0680371
0.0500165
0.0456553
-0.0148327
-0.0134496
-0.0768001
-0.0790456
-0.119772
-0.359098
-0.236596
-0.122018
-0.443816
-0.709498
-1.59609
-2.91601
-2.69535
-4.84651
-9.68007
-2.57554
-1.8409
30.2033
22.9155
292.056
1694.38
2224.75
7121.45
7302.83
12274.1
7894.96
9349.33
4868.51
5133.52
4341.63
2963.43
4876.97
3281.8
3052.62
5337.18
3896.29
2502.4
3776.06
2446.22
973.577
297.267
41.8337
5.77552
24.7684
26.1006
18.5522
30.8331
121.626
135.849
390.282
755.575
1463.61
1354.84
3224.88
4920.5
8252.37
6996.21
10790.3
13198.1
16231.6
15600.7
17078.2
19016
17890
18670.5
20928.6
21910.1
21692.6
20921.5
18277.5
17557.2
18229.6
15438.5
14096.1
13523.6
9680.87
7703.59
5871.04
3296.33
2464.82
1856.43
1218.66
745.991
309.386
200.839
207.072
119.691
58.878
38.1493
64.8983
46.0799
34.8004
54.3044
77.7697
28.4232
67.0337
127.232
90.7986
41.9802
44.4855
61.1576
231.366
622.38
1206.78
1834.04
1162.45
611.424
825.444
1250.37
857.097
610.075
478.157
422.785
965.694
824.121
808.855
777.24
807.119
987.25
1111.05
1462.54
1292.43
1407.7
1749.24
1870.48
1889.96
1222.43
566.302
160.472
73.7916
2.34862
-17.041
-9.88499
-8.46561
-17.1049
-7.1709
49.0426
-2.45014
-12.1755
-8.86911
-4.80947
-5.43968
-6.33435
-2.80919
-1.1221
-2.04769
-2.17301
-1.95276
-1.39134
-0.726417
-0.349571
-0.0853034
-0.0199362
0.0428504
0.0323406
0.0439571
0.0684791
0.0937534
0.0936474
0.0998766
0.136367
0.137627
0.146661
0.115259
0.164074
0.112139
0.122918
0.15405
0.106231
0.0770717
0.0962961
0.0548694
0.0691022
0.014364
0.0631825
0.0437619
0.0418862
-0.0479065
-0.0966028
-0.0952049
-0.300594
-0.448554
-0.690236
-1.14776
-1.82954
-2.06842
-2.17755
-3.25484
-5.12991
-10.6696
-11.9801
-20.6485
-21.8433
-28.646
46.9649
556.052
603.114
1365.63
2833.73
2986.6
4051.55
5887.66
3712.83
3119.03
3768.53
2258.93
2068.74
2687.89
1869.76
1485.02
1548.89
2044.19
1584.91
1969.1
1741.66
2257.98
1858.57
1460.88
1509.44
1510.21
734.911
196.785
23.0509
-1.44051
8.96776
24.1596
90.4797
291.183
399.612
941.518
2227.62
1578.93
768.452
674.479
784.955
1504.86
1529.22
3108.45
3328.38
8972.93
6415.05
8671.27
13423.5
10543.7
7196.96
4848.91
5379.85
5136.36
5770.07
7632.5
10774.8
15132.6
18706.2
15184.7
20116.8
14926.8
10286.1
7300.1
7574.67
7536.44
7358.85
10568.3
14561.6
18817.9
11995.9
9918.54
11190.3
8398.7
7482.93
7861.24
5726.38
3477.15
3379.86
3470.91
1983.3
1189.39
709.003
419.947
134.892
29.2841
-19.6749
-16.6833
-14.1539
-12.4137
-6.65751
-29.867
3.74969
11.9054
38.1995
40.2439
87.5357
180.049
287.021
187.863
377.272
898.148
516.461
664.253
781.412
-141.102
-444.024
-455.441
-589.841
-469.294
-450.839
-599.545
-626.928
-464.632
-125.052
-123.939
41.1416
272.095
879.601
1106.17
155.515
311.426
46.571
-8.22674
-20.685
485.114
1239.98
849.567
273.404
-6.42043
-7.34055
-3.72725
-2.32407
-1.77601
-0.993199
-0.512288
-0.174936
-0.0130986
-0.0675558
0.0562273
0.0152913
0.108805
0.0457124
0.101652
-0.022182
-0.120959
-0.0210434
0.0825519
0.00974036
0.0899904
0.0383943
-0.05387
0.0123097
-0.124657
-0.254544
-0.168809
-0.0234285
-0.0954892
-0.0286282
-0.064599
-0.186741
-0.27567
-0.368161
-0.526152
-0.845166
-1.14195
-1.38576
-1.8735
-3.64147
-4.86991
-4.34824
-6.4198
-7.5935
-5.77331
-13.0396
-15.7057
-26.3518
31.6637
44.8354
125.868
282.017
849.783
386.264
450.753
1418.28
1173.48
1855.26
1185.97
1521.15
1358.38
1574.9
932.932
526.957
929.564
1476.41
1156.04
1550.16
1338.61
1100.43
1809.35
757.453
500.672
1042.15
1332.77
732.114
794.168
194.816
24.6057
-10.9469
5.02679
27.1794
92.4507
289.426
263.186
94.6773
39.588
11.8877
4.20143
39.9813
157.997
124.675
435.855
-23.1148
130.766
73.6708
56.6553
7.18687
18.048
69.3735
168.001
374.969
537.907
528.289
347.209
213.222
297.818
407.327
669.356
1043.29
777.022
1001.89
1682.46
991.036
988.818
643.065
428.709
691.44
461.988
226.137
143.14
122.171
83.3293
50.1189
40.1375
18.2695
13.8888
-2.66629
-22.6167
-52.7054
3.43108
-22.263
-22.8956
-26.8879
-22.7975
-23.4288
-22.7185
-36.4498
-3.17643
-15.3882
-20.4098
-26.4278
-50.5947
-35.4884
49.0039
-160.15
90.3979
638.829
2595.26
5065.45
6343.78
6813.52
6597.98
4287.9
4212.44
5550.47
3569.79
3756.76
2075.65
967.1
435.749
174.441
89.9898
-34.1566
-30.5635
-18.5908
-18.8054
-12.5524
-11.594
-9.42453
-6.65903
-5.3138
-3.92263
-2.57386
-1.72688
-1.06112
-0.560352
-0.228102
-0.465963
-0.620427
-0.633896
-0.226515
-0.410428
-0.162934
-0.312921
-0.438693
-0.587076
-0.729484
-1.13199
-1.86277
-2.41678
-3.82508
-5.48857
-5.88577
-7.79526
-7.09115
-14.7831
-13.14
19.2382
-109.963
16.0071
212.066
809.023
847.837
678.205
1086.21
239.891
940.411
497.102
-153.887
34.0157
882.266
412.401
956.809
756.118
361.49
-118.065
-87.6368
321.853
218.526
105.685
-14.85
25.9075
128.832
318.369
742.523
227.091
1065.68
811.557
1265.79
1117.31
1844.36
3020.79
4967.8
3228.51
2319.23
1461.6
1454.95
615.142
892.492
962.502
1726.06
2104.23
3527.23
3054.31
1999.3
3291.9
3195.07
4551.05
7801.05
4890.58
3127.74
2753.41
1833.06
1292.09
517.344
398.591
308.262
481.724
1152.23
1626
2681.05
4481.76
4952.1
4218.73
6845.61
9355.2
9685.16
7735.62
6389.24
3850.17
2059.68
1150.67
694.624
435.184
169.504
142.728
36.0035
-4.61557
-42.3475
-1.25254
-16.6064
-15.8684
-14.4922
-7.85823
-17.026
0.566401
1.58573
15.1801
235.21
762.134
1749.67
36.523
24.9888
-503.582
-441.238
-843.348
-943.275
-39.359
-23.6758
243.161
73.6005
3.52109
-91.1632
1007.42
2395.46
2431.7
1502.65
4.50925
-9.29627
-4.95366
-4.07253
-3.80746
-3.27083
-2.33729
-1.70832
-1.29436
-0.662504
-0.283126
-0.0808911
-0.27608
-0.423076
-0.41707
-0.0805985
-0.371875
-0.0953141
-0.205851
-0.362132
-0.572328
-0.941107
-0.93106
-1.23442
-1.55842
-0.90102
-1.13373
-0.573184
-0.797375
-0.974829
-1.30768
-2.18324
-3.03661
-4.03721
-4.59111
-6.38942
-9.62803
-7.67864
-8.58186
-15.9778
17.7525
-11.6889
-41.7084
108.95
-471.082
384.341
-48.4891
1032.45
518.448
-346.224
-502.24
-397.513
-362.726
-679.198
-361.367
-459.017
-426.653
-300.441
-122.551
-59.9278
-166.678
-117.008
-442.4
92.1252
578.473
1473.26
433.206
849.277
417.351
121.064
42.6387
63.1256
207.591
387.507
476.411
443.604
364.866
257.513
269.248
629.629
1.2772
988.274
533.803
496.446
675.506
544.611
1091.74
990.174
628.073
307.504
499.613
655.127
525.086
328.472
405.34
560.915
24.209
603.991
-135.298
-286.799
377.393
156.227
274.647
1252.33
824.545
1279.81
119.718
319.938
422.922
1066.02
1555.69
2619.7
4421.49
7398.23
7387.72
10235
14899.2
19644.2
10981.2
8226.82
7623.37
7347.32
5378.41
3248.36
3278.47
3380.93
1907.53
1058.33
594.303
329.57
94.3602
-4.41403
-1.09749
-9.51609
-4.01535
-1.17386
-8.6559
9.29523
78.476
163.129
339.995
554.659
602.755
901.979
1068.53
953.692
911.539
801.754
-0.282669
-483.42
-360.592
-324.129
-494.119
-154.997
388.834
110.01
718.464
477.179
1194.3
1038.73
1439.65
1327.93
1458.23
1394.05
285.599
333.503
385.099
117.21
71.8847
89.5966
-97.3192
221.168
1179.14
106.929
141.085
11.1439
-6.45471
-3.42174
-3.85434
-2.78407
-2.13889
-1.46004
-0.935694
-0.521953
-0.169238
-0.31974
-0.350733
-1.05524
-0.960693
-0.344756
-0.312221
-0.248695
-0.22037
-0.210561
-0.197012
-0.234622
-0.294657
-0.478824
-0.449287
-0.55966
-0.549889
-0.512096
-0.478839
-0.472918
-0.509156
-0.744352
-0.525105
-0.607859
-0.516667
-0.519276
-0.638524
-0.558782
-0.144979
-0.0438754
-0.233205
-0.374072
-0.507161
-0.300907
-0.599715
-0.84253
-1.12615
-1.72471
-2.45257
-3.68109
-3.83053
-5.44519
-9.23133
-8.45604
245.916
2900.2
434.98
-50.0542
104.119
159.327
567.508
1408.98
1179.93
1484.08
1098.45
641.778
1234.28
77.069
626.582
-229.866
253.515
-314.646
-3.61993
-380.93
-191.694
-161.315
-54.9842
15.7133
449.247
1586.22
1394.42
940.693
662.755
520.511
-221.843
-852.859
-951.586
-785.779
-598.868
156.639
743.332
2016.47
2328.07
2585.97
1309.32
454.056
155.512
2395.5
2316.24
2539.8
1554.09
94.0184
-10.6227
-5.32177
-5.07703
-4.69911
-4.46613
-4.13193
-3.36704
-2.43183
-1.76323
-1.11776
-0.57317
-0.447917
-0.778436
-1.26515
-1.41207
-0.995089
-1.44117
-0.774828
-0.451117
-0.692632
-1.2047
-1.41888
-0.836087
-1.76765
-2.24704
-2.63064
-1.82597
-2.24876
-1.46144
-1.70734
-2.49752
-3.00623
-3.82944
-5.34848
-5.97487
-7.11618
-8.06627
-11.7155
-13.9097
-5.55957
-6.56616
9.65124
53.2709
103.706
444.774
682.196
1274.47
285.594
-851.777
-190.828
-942.647
-384.776
198.202
663.582
867.989
183.457
449.951
918.432
1252.69
1441.83
1206.87
1434.2
468.441
72.8017
2.1609
113.432
181.841
303.182
828.771
401.48
988.475
1563.31
1270.32
1343.84
1422.23
1102.41
1539.46
719.224
101.112
327.09
532.503
972.403
519.721
944.433
576.706
1098.54
935.732
684.083
279.595
671.483
158.693
20.6072
29.3472
247.476
387.122
763.935
1390.84
820.32
390.9
312.41
121.198
313.512
454.44
700.339
1361.44
1696.66
1086.42
1551.42
1115.57
830.614
941.18
575.218
613.412
1217.35
181.002
228.309
152.009
-370.955
-631.662
-65.6691
247.479
1366.85
968.947
1394.69
1054.37
801.103
410.746
1108.9
499.07
948.235
275.046
897.027
715.502
-367.051
-320.274
82.0999
91.8371
1550.73
816.98
1248.5
-301.838
-948.874
-1023.03
-315.831
-322.715
-972.991
-196.262
-218.054
-189.322
85.8614
131.471
628.267
577.163
1250.88
1540.8
2695.08
4251.71
7570.73
5204.96
4609.83
7142.96
10452.5
13846.3
17996.1
9159.34
9059.33
5897.07
6974.28
4722.23
2626.64
1486.32
838.602
381.103
155.408
59.6126
17.0569
-2.52183
-2.44669
-2.25868
-3.75886
5.74111
-1.37759
2.37313
72.6171
67.3789
38.4259
355.701
1122.79
483.783
49.6665
-181.918
-313.484
-565.682
61.7302
547.648
-13.2831
1360.68
1673.28
1031.22
-123.594
-937.487
-670.941
-589.838
-562.51
400.809
290.021
1374.16
1232.11
2252.9
2575.16
2911.24
3195.83
2873.61
1417.08
831.326
1001.63
793.958
1916.88
2801.78
1749.17
404.581
13.2749
12.0191
-4.99627
-5.15189
-6.74408
-5.48957
-5.21391
-4.22667
-3.03671
-2.33745
-2.96862
-2.98854
-2.1232
-2.50598
-2.84602
-3.88928
-4.86643
-3.30077
-2.33317
-2.85682
-3.36784
-3.2951
-3.7341
-4.20147
-3.09681
-3.37426
-4.31677
-4.34529
-4.86621
-7.21279
-11.8043
-9.56829
-7.1977
4.63736
25.4876
-29.1996
157.856
894.786
291.558
1221.89
2058.91
858.171
957.424
90.2212
1096.2
700.584
-312.741
-208.618
49.7171
163.254
-530.28
507.378
-4.89799
81.1994
-92.9503
1158.64
-390.954
195.236
-765.492
-674.065
-799.872
-1019.07
-737.049
-1292.42
-113.304
1079.76
877.353
1432.95
597.476
103.75
29.1948
-0.524243
52.5593
438.933
626.35
559.455
1633.3
611.035
-385.84
-238.723
261.696
551.104
-73.0052
240.465
-302.826
131.346
390.969
1540.27
2442.37
1759.31
1147.82
720.625
876.694
1825.41
1391.58
335.326
1151.48
881.211
275.362
479.177
446.954
102.603
103.094
180.791
347.16
100.036
6.93592
-4.76109
-17.5888
-19.5055
-40.7404
-3.96301
-32.8212
-55.1743
5.21379
102.566
258.714
1402.61
3595.3
2883.94
2578.54
2832.93
4771.61
5342.3
4956.75
4824.15
4149.29
3913.57
3288.79
2460.01
1524.8
540.368
440.723
1681.33
1365.24
980.225
2865.75
3388.54
370.125
306.604
492.641
221.366
445.703
310.321
817.869
798.548
1602.64
893.664
866.465
2077.34
2680.67
1361.65
2429.73
13.9016
54.9697
211.247
-754.315
-425.704
-643.489
1708.31
949.703
1907.6
527.83
148.093
95.5631
443.528
789.341
1061.53
1342.35
807.738
-651.465
-961.056
-237.451
-460.937
-634.569
286.958
182.175
254.393
951.835
783.324
1317.3
1504.45
2467.7
4631.43
4125.04
6420.82
9361.5
11619.2
7053.34
4834.14
4014.36
2361
1042.65
666.262
1235.69
2471.56
2783.74
5591.97
2326.89
2135.12
3375.21
5743.54
4663.63
4722.17
3417
2474.87
644.8
1642.89
3483.6
6401.81
5035.7
1244.72
550.563
263.956
101.22
29.4356
5.96007
-1.7113
-3.00618
0.888792
-1.27255
-2.4743
-0.0459526
11.5508
91.4515
93.5842
112.141
111.146
137.712
61.9715
147.92
269.073
247.315
238.118
238.836
636.914
1377
1153.81
1740.42
1684.85
1550.11
1992.14
1250.85
458.34
64.2891
687.422
1272.06
655.783
237.856
2326.49
3866.26
4416.79
3792.11
4015.27
3848.59
1669.77
1624.53
903.096
379.954
-220.866
66.3762
3392.94
3967.29
4920.15
3298.85
788.445
149.151
67.6856
-9.09428
-10.762
-8.43629
-9.37472
-9.05066
-6.52588
-5.47412
-4.56553
-3.63239
-4.51758
-5.75447
-6.73766
-7.56307
-7.33305
-5.37709
-3.85119
-4.53706
-5.28211
-5.98829
-4.692
-5.03462
-5.46036
-5.49888
-6.97913
-5.30182
-5.12415
-6.53387
6.90738
-63.5851
61.0417
240.286
536.524
306.881
1605.5
2937.17
1718.73
2610.48
3007.09
2566.79
2438.88
2601.14
2670.17
2147.24
2109.56
2775.87
1660.74
2114.22
2775.58
3104.06
2885.21
1738.91
261.372
113.187
7.13097
690.647
703.411
1992.68
1174.65
349.113
1139.23
1889.24
2626.11
2033.16
2811.81
2221.19
1562.1
336.327
2559.54
1829.22
1070.13
1583.3
2131.8
2438.72
2112.16
2650.63
3154.8
2543.48
1642.38
3012.53
1465.82
2110.16
3152.09
2901.42
2725.14
1149.63
-88.7119
1261.1
2505.59
3414.29
2592.4
1974.89
2627.02
3189.44
2722.33
2026.29
2574.7
2600.69
3040.05
2128.88
1826.7
2006.27
2766.09
2407.92
4117.07
2715.38
1790.78
3295.09
899.991
2964.03
4676.31
1110.27
1188.02
673.412
322.293
547.1
1567.71
2183.18
3924.83
2285.97
3054.91
3642.12
3739.51
4810.87
1782.49
3250.29
2227.44
1237.35
316.511
1528.7
3689.26
6157.76
5140.06
5414.68
5369.39
4871.07
5187.68
6926.81
6001.48
5473.09
6585.66
7215.62
6356.72
5574.87
4557.68
3750.51
4527.8
3394.42
1952.78
414.14
1504
3431.06
7471.26
8449.96
9205.73
8905.33
8744.71
8334.64
6836.75
6919.96
7032.16
6003.79
6836.33
4968.02
8422.13
5196.26
7864.62
11735.2
10974.6
11297.9
11231.1
10245.6
8697.81
8199.8
8248.3
6938.25
5914.33
6854.09
7803.91
10358.1
7384.55
11254.2
11153.2
11279.5
10146.4
8464.16
8611.19
8801.06
8338.35
6907.04
5952.55
6886.35
7777.52
10362.6
7750.58
11732.2
10837.1
11252.4
11053.4
10578.2
9014.57
8129.73
7362.43
7054.21
6852.28
4875.46
4680.12
5041.44
7430.41
8113.29
7400.59
7407.81
6811.22
5020.43
5173.56
6097.85
7273.14
6550.15
6445.37
3455.71
2289.84
1322.44
486.099
115.642
14.4005
-43.4544
-46.3474
-36.4757
-31.7256
-23.1211
-19.8862
-14.0897
-11.3614
-8.29416
-8.92002
-10.4655
-12.9788
-10.4722
-10.7369
-7.89158
-8.2587
-6.34134
-6.75581
-8.44853
-8.85329
-10.7251
-10.5594
-7.8238
14.812
-49.2509
1166.54
1600.96
3261.09
3393.76
3302.73
3449.82
4338.79
6739.28
6110.59
5372.99
5322.41
3507.35
4210.46
4476.85
7010.3
7039.58
7911.37
8151.75
7691.66
9663.56
9751.86
10007.3
10738.7
11378.8
11339.8
10666.4
9583.69
6268.47
10364.1
11320.3
10565.9
11707.7
12769.2
12822.8
12998.3
12608.6
12634.8
12527.5
12573.9
12825.1
12681.7
12438
10989.3
10859.3
11191.1
9251.6
9124.73
8805.28
9368.21
10728.9
9590.07
8977.03
8313.29
9204.07
8332.42
6267.68
5195.64
3403.08
1401.97
1385.18
621.022
171.28
108.078
0.28569
-53.5687
-55.1307
-50.0619
-40.3761
-34.7026
-26.4587
-21.8358
-16.1706
-14.0194
-13.2944
-13.162
-10.8262
-10.5394
-12.0124
-10.5857
-0.556622
47.3217
97.097
352.225
217.077
680.014
1897.28
1727.29
2599.94
4968.67
4122.47
5988.07
6812.67
7453.65
7964.69
7106.13
7248.24
7505.88
6874.59
6674.52
6936.17
6568.19
6458.19
8437.62
10239
11870
14582.9
13457.9
14531.2
15313.1
15273.5
14994.4
14314.4
13767.1
11459.7
14727.7
16746.4
16955.2
16704.8
16833.9
17159.2
17140.1
16141.4
14782
14638.5
15039.5
15198.6
14271.4
13840.1
11189.5
14610.2
15152.4
14237.7
12857.1
13787.2
13342.4
8461.21
10812.1
11867.3
10876.5
13103.8
12586
10083.4
9693.99
11396
11204
8359.01
5957.24
3774.84
1409.72
1369.12
-95.0106
77.7503
93.451
-198.345
-123
-117.976
-92.2908
-63.0171
-56.0413
-42.4482
-31.9837
-26.607
-21.1949
-17.4656
-16.8989
-14.4208
-16.2051
-3.06923
76.5952
275.905
549.036
1306.01
2326.02
3889.8
4577.68
4480.81
6366.51
8118.52
9191.56
8757.39
9444.81
8438.94
7750.33
6490.66
9221.28
9671.81
10279.9
11961.9
12851.7
14849.4
15879.8
16300.4
15766.2
16523.9
18125.5
18465.6
18269.6
18518.4
18592.1
18560.8
18491.8
18300.5
16664.1
16782.7
16295.2
15228.5
15609.2
14686.8
11213.4
14493.9
14350.7
12522.6
13969
14092.6
12034.8
11595.8
12859.7
11915.2
7426.39
6711.74
3261.56
1142.46
135.435
26.1127
85.9524
635.523
1895.34
1345.13
804.01
746.638
278.004
136.197
200.767
-29.4718
-37.837
-41.0895
-37.1578
-27.6127
-20.5614
-15.0581
-15.4365
42.7371
63.436
311.26
688.714
1363.47
2322.65
3185.45
4592.22
6248.71
7904.24
9487.95
10792.4
10837
11737.2
10360.8
9616.59
9662.22
11007.7
13201.4
11186.9
13411.4
17176.4
17680.3
17806.7
17682
19902.4
20206.9
20616.6
20328.8
19552.9
18794.8
16238.9
19358.5
21159.9
21638.3
21875.9
21751.6
21818.6
20339.5
20325.5
20336.7
20364.3
20460.5
20478.6
19612.3
18265.1
17916.8
17190.1
17180.7
16600.5
15193.4
15256.5
15253
16239.4
15628.5
15333.2
13868.7
13274.8
13950.3
13353.9
10797.4
8379.1
1955.94
752.817
2353.91
4221.82
3121.13
7260.5
5082.27
4163.75
3841.14
2913.1
1858.95
1101.44
648.922
223.026
37.0701
47.926
-5.54838
11.9496
152.786
796.849
2237.42
2045.31
4231.51
2101.42
4013.11
7045.08
2768.6
4713.99
8448.84
10619
14091.8
12936.8
12550.2
11867.5
14408.6
15772.8
15605.2
16715.5
18968.5
19659.6
19823.1
19297.1
20195.6
21185.8
21517
22805.8
22973.7
23105.9
23183.7
23174
23249.5
23270.8
21896.7
21699.2
21823.3
21688.5
21423.7
21273.5
21045.8
20143.9
19133.4
19258.6
19681.4
19907.4
18303.4
18517.5
18115.5
17534.6
17187.3
16382.6
15204
13738.1
13301.9
8940.72
2977.4
1851.04
3450.28
4400.27
7632.68
11653.2
9517.5
14423.1
12280.6
10189.2
8945.82
6844.05
4336.06
1312.74
2015.69
3438.05
5173
7416.96
11265.6
18917.3
19111.1
17425.7
15915.4
14136.7
11626.5
6303.59
9712.51
15289
14584.9
15949.9
16877.9
17813.3
19744.4
21346
20665.5
20865.7
21060.1
22675.6
22546.3
23501.5
23525.3
24757.5
24716.5
24546.1
24544.8
24590.7
24425.5
24780
24727.8
24490.5
24137.2
22856.5
21831.7
22523.7
22923.1
22873.8
21549.6
20266.1
20968.8
17114.5
11975.3
11154.3
10022.3
3597.8
2353.67
4474.3
10223.1
14585
18635.6
16838.4
20011.1
21332.1
20475.4
20364.8
18538.9
18228.6
16512.1
12221.8
15082.7
7281.39
10532.5
12968.3
15163.8
22910.8
22765.4
21467.4
17020.6
18584.6
22666.9
22092.3
22486
24266.8
24487
24613.5
25772.3
26095.8
25904.3
26038.6
25840.1
25951.4
25923.9
25958.5
25987.5
25670.2
25280.2
24457.6
23092.4
23931.6
24443.5
24258.1
21963.5
20525.7
22211.5
17734
13047.7
4056.35
4436.54
3863.4
2894.79
6956.84
13008.4
16695.5
19995.8
21617.1
20974.4
22672.8
24515.7
24178.1
23929.7
23553.4
25109.4
25782.4
25766.8
27726.6
27473.4
27690.3
27862.7
28079.6
27856.8
27102.2
26040.4
24660.8
27537.4
28012
27878.7
27186.4
26220
25464.8
27635.8
27851
27612.3
27430.5
27517.7
27598.3
23415.1
24347.9
27644
26708.6
24390.3
23235
24691
24836.2
16134.5
7663.32
2110.54
3811.94
9445.01
13756.8
11844
10366.8
17079.8
17433.2
10782.6
16745.3
7611.02
10820.4
13274.4
23866
25856.5
25576.9
25205.3
26488
26321.7
26583.2
26614.1
27930.3
29017.2
29183.4
28889.4
28996.8
29059.5
29095.8
29006.1
29066.2
28996.6
29100.6
29001.7
28896.1
29053.8
28931.3
26682.8
26684.2
28726.1
28559.4
26658.2
25812.9
27445.4
27379.7
10904
3724.96
13660.1
18093.2
23875.3
20602.1
17522.1
3447.15
5188.23
7968.59
12102
26768.4
29986.6
28214.3
26106.8
27890.5
28155
29389.1
28006.2
28592.3
30315.1
30090.8
30231.6
30049.8
30063
30081.1
30058.5
30017.5
30036.4
30040.4
30076.9
30105.2
30087.7
30215.3
30139.4
29253.4
28958.3
30113.5
30074.6
28664.4
28142.1
29436.2
29247.6
14603.1
6208.22
16702.4
21601.7
24808.2
29296.8
31448.3
31552.4
30524.1
29319.6
27245.4
29136.4
30567.8
29637.6
30796.1
31465.5
31007.1
31084.3
30963.9
30918.8
30912.1
30874.8
30843.7
30861.6
30889.4
30900.3
30977.5
31034.1
31134.1
31121.7
30954.6
30495.1
31347.1
31357.4
30506
30218.5
31100.2
30978.6
17152.5
8875.15
19940.6
23452.9
27979.4
31371.8
32579.8
32384.2
32327
31560.3
30689.7
31880
32603.2
32840.8
32307.6
31707.2
32281.9
31723.7
31753.4
31652.6
31575.6
31555.3
31507.8
31485.6
31495.4
31536.7
31545.7
31644.2
31753.7
31850.4
31891.1
32246.1
31713.2
32296.8
32367.8
32078.7
31942.7
32475
32327.6
20168.3
12191.6
16574.3
26975.8
30826.6
32913.1
33381.9
32967.8
33282.3
33093.3
32650.4
32927.6
32770.7
32208.5
32193.5
32099.1
32017.9
31989.2
31938.6
31921.5
31931.8
31981.7
31982.7
32088.7
32216.7
32313.4
32397
32971.3
32480.2
32915.6
33053.6
33139.1
33147.2
33563.4
33283.1
23686.1
27944.2
21971.6
30284.3
33002.1
33844.4
33816.8
33844.1
33298.2
33075.1
32697.1
32843.5
32468.3
32455
32409.4
32318
32245.4
32211.8
32161.1
32157.8
32159.9
32211.8
32209.2
32308
32438.2
32542.5
32643.4
33257
32877.2
33213.8
33408.5
33696.9
33806.4
34238
33960.9
34338
31835.2
27595.1
32787.4
34107.7
34089
33772.1
33495.7
33036.1
32826
32530.9
32544.8
32290.4
32257.7
32405.1
32325.3
32267.2
32238.6
32181.3
32178.5
32181.2
32242.4
32228.2
32317.3
32431.8
32527.6
32629.9
33161
32906.9
33175
33403.1
33752.9
33936.7
34453.6
33948.3
34032.4
34802.6
33832.3
34044.6
34025.9
33369.5
33190.4
32920.1
32567
32405.8
32151.8
32148.3
31959.1
31936.8
31848.3
32158.7
32117.8
32112.4
32036.1
32049.8
32041.4
32094.3
32070.5
32140.7
32236.7
32331.3
32412.4
32803
32697
32873.3
33091
33372.6
33559.9
32923.9
33179
33277.2
33678
33749.6
33487.6
32624.2
32567.6
32497.9
32256.7
31991.8
31887.3
31685.2
31651.1
31518.8
31512.2
31437.5
31394.6
31814.6
31813
31738.9
31742.9
31727.6
31791.6
31751.1
31814
31892.2
31955.2
32063.7
32285.7
32274.1
32395.4
32578.2
32774.7
32059.5
32174
32339.8
32404.3
32643.3
32706.4
31725.2
31738.7
31750.9
31778.6
31588.8
31389.7
31279.2
31104.1
31060.1
30956.3
30955.9
30905.8
30837.3
30818.2
31392.3
31329
31370
31330.5
31359.3
31301
31382.8
31450.8
31464.2
31575.8
31729.3
31774.8
31816.4
31949.1
31208.4
31281.3
31391.1
31485.6
31525.5
31650.2
30680.6
30824.1
30895
31032.1
31027.3
30852.8
30747
30625.1
30456.5
30347
30319.3
30291.4
30239.7
30130.5
30180.6
29997.7
30181.1
30832.5
30762.9
30747.2
30639.3
30815.3
30884
30746.4
30891.7
31049.1
31127.4
31091
30207.3
30424.2
30391.3
30535.8
30602.1
30662.1
30067.8
29715.2
29970.2
30103.8
30456.1
30184.8
30027.1
30211.6
29981.9
29757.6
29547.2
29853.5
29664.4
29466.6
29298.1
29737.6
29316.7
29269.5
29047.1
29403
29999.6
29785.1
30022.1
30097.8
29825.6
30021.6
30222.9
30390.7
29431.5
29441.9
29899.1
29424.6
29647.5
29834.6
29710.2
28968.5
29323.2
29340.7
29234
29546.6
29428
29660.8
29617.8
29302.1
29608.4
29066.8
29206.1
29262
28932.9
29595.8
28851.8
29015.6
29058.8
28843
28681.7
29460.7
29921
29369.3
28982.7
28177.9
28199.5
28087.7
28026.1
28005
28784.7
28843
28753.4
28458.4
29363.1
29095.2
28974.6
29085.4
29158.3
29354.7
29137.5
28938.2
28931.4
28765.2
28972.1
29145.8
29107.6
28888.8
28268.7
28204.5
28509.1
28491.4
28578
28931.5
28925.5
28818.5
28687.1
28398.6
28413.3
28495.1
28207.7
28245.6
28272
27558.8
27464.5
27365.5
27358.7
27287.1
27157.3
27173.6
27118.5
27850.3
27850.7
28015.3
27803.4
28064.2
28033.4
28136.1
28094.2
28162.8
28244
28332.1
27597.9
27595.1
27534.3
27837.4
27851.6
27962.5
28395
28357.1
28231.6
28113.3
27820
27807.3
27845.8
27560.3
27590.4
26938.7
26858.7
26748.2
26632
26613
26463
26321
26364.8
26306.3
26022.7
26162.7
26289.7
26544
26396.9
26589.1
26679.3
26686.8
26766.7
26895.5
26935.2
26872.7
27213.1
27270.6
27349.6
27867.8
27834.4
27720
27588.2
27215.2
27202.4
27232.3
26911.2
26361.4
26351.4
26236.5
26096.9
25952.5
25951.1
25743.3
25561
25584.3
25501
25165
25301
25491.4
25773.4
25648.9
25881
26030.6
26012.1
26118.8
26272.1
26348.4
26319
26684.8
26781.4
26838.8
27401.2
27382.2
27286.4
27110.3
26710.8
26707.8
26701.3
26215.6
25806.5
25787.3
25626.6
25458
25275.6
25245.7
24927.1
24737.5
24758.9
24664.1
24257
24384.9
24667.2
24936.8
24833.2
25057.7
25323.3
25337.1
25486.8
25671
25791.9
25770.5
26199.7
26314.9
26324.8
26970.8
26990.6
26905.8
26674.2
26199.5
26232.3
25891.8
25826
25380.5
25323.8
25114.5
24895.5
24669
24631.5
24230.6
23988.4
23950.9
23845.6
23336.4
23450.6
23866.1
24122.6
24098
24373.8
24732.4
24744.1
24940.4
25164.8
25338
25356.2
25825.9
25975.4
25949.6
26645.4
26688.5
26617.8
26323.6
25831.9
25495.2
25576.2
25497
24987.9
24917.4
24631.4
24357.7
24095.6
24004.9
23467.1
23194.3
23121.8
23017.3
22275.4
22382.7
23037.3
23290.4
23306.6
23596.1
24109.8
24176.9
24418.2
24695.9
24945
24974.7
25507.3
25673.4
25616.9
26368.3
26458.9
26414.4
26035
25874.8
25250.8
25345
25152.3
24713.5
24574.9
24188.6
23753.7
23552.6
23452
22741.5
22281.1
22318.6
22203.3
21049.5
21181.9
22181.4
22482.7
22383.6