/*--------------------------------*- C++ -*----------------------------------*\
  =========                 |
  \\      /  F ield         | OpenFOAM: The Open Source CFD Toolbox
   \\    /   O peration     | Website:  https://openfoam.org
    \\  /    A nd           | Version:  7
     \\/     M anipulation  |
\*---------------------------------------------------------------------------*/
FoamFile
{
    version     2.0;
    format      ascii;
    class       surfaceScalarField;
    location    "18.8";
    object      phi;
}
// * * * * * * * * * * * * * * * * * * * * * * * * * * * * * * * * * * * * * //

dimensions      [0 3 -1 0 0 0 0];

internalField   nonuniform List<scalar> 
42560
(
-0.0162599
0.0052976
-0.00262148
-0.00143352
0.000413658
0.014604
-0.000691311
-9.58999e-05
-0.00125604
-0.000573751
0.000418497
-0.00331557
0.0097616
-0.000241594
0.00553463
-1.82791e-06
0.000413538
0.00628341
-0.00030155
-0.000373833
0.00670605
-0.00060306
0.000126225
0.00247648
-3.14949e-05
0.00130267
0.001439
-3.76131e-05
0.00210088
-0.000382493
0.000301388
0.00298642
-0.00129622
-0.000142137
0.00220585
-0.000958922
0.000814263
0.00155906
0.000764237
0.000238592
0.000502481
0.00237502
0.000408396
0.000144991
0.0026572
-9.80289e-06
0.000122101
0.0023418
-2.85287e-05
0.000112698
0.00199124
-9.57517e-05
-0.000334609
0.00367545
-0.000284951
-3.45629e-06
0.00266396
-0.000185834
0.000132118
0.00222921
-9.57856e-05
-0.000454682
0.00402164
-0.000286674
9.28014e-06
0.00287139
-0.000182113
8.68257e-05
0.00237427
-6.30329e-05
-0.000478428
0.00423816
-0.00020065
-9.04566e-05
0.0030154
-9.20633e-05
-0.000306125
0.00245542
5.57424e-05
-0.00134136
0.00259744
0.000331854
-0.00239587
0.000449958
0.000646269
-0.00309436
-0.000820127
0.00026178
-0.00292766
-0.00114705
-0.000438856
-0.00430966
-0.000724679
0.000211277
-0.00504869
-0.000640648
-0.000353166
-0.00546756
-0.000699193
-0.000701489
-0.00698607
-0.000309267
-6.69081e-05
-0.0126049
0.00142902
0.00209152
-0.0136776
0.00174569
-0.00267435
-0.0134817
-0.00105234
-0.00377158
-0.0129522
-0.00369592
-0.00402297
-0.0152922
-0.00554535
-0.00158092
-0.0264097
-0.00898122
0.00342823
-0.0212739
-0.0163999
-0.0068585
-0.0229223
-0.0134402
-0.00307465
-0.0370749
-0.0175722
0.00370742
-0.0230561
-0.0288704
-0.0145954
-0.0236028
-0.023022
-0.00460253
-0.0324119
-0.0285556
-0.000375293
-0.014939
-0.041885
-0.0155452
-0.0130613
-0.0277003
-0.00492633
-0.0141991
-0.0315683
-0.00662028
-0.00860183
-0.0368922
-0.00907178
-0.00507844
-0.0390931
-0.00903964
0.00142977
-0.0393686
-0.0105315
0.00683
-0.0404823
-0.00889592
0.00923769
-0.0405099
-0.00733919
0.0131499
-0.0409594
-0.006423
0.00683938
-0.0402187
-0.000935767
0.00260635
-0.0374517
0.000467836
0.0117828
-0.0548073
-0.00329964
0.00334122
-0.0458712
-0.000570442
-0.0106923
-0.032182
0.00030692
0.0019873
-0.0601988
-0.00570889
-0.00357861
-0.0514965
-0.00475626
-0.00682696
-0.0416181
-0.00100832
0.00832721
-0.060913
-0.00925376
0.00289612
-0.0437471
-0.00529764
0.000409819
-0.0350063
-0.00121638
0.00858824
-0.0495073
-0.00814979
0.0223859
-0.0558044
-0.0135058
0.0352368
-0.0618892
-0.0175904
0.0177102
-0.0296807
0.00069899
0.0117638
-0.0201462
-0.00391084
0.0105172
-0.0236741
-0.00271903
-4.11021e-06
-0.0227663
0.00514826
-0.0141192
-0.0193972
0.0012234
-0.030486
-0.0295989
0.00216328
-0.0218081
-0.0635026
-0.0128271
-0.00572571
-0.0568143
-0.0103633
-0.0032407
-0.0497691
-0.00488885
-0.00706582
-0.0294296
-0.00356475
-0.0190609
-0.0464175
-0.00531154
0.00323862
-0.0593046
-0.0126545
-0.0127845
-0.0383424
-0.00459432
-0.0134542
-0.0481948
-0.00579957
0.000214608
-0.0650627
-0.0101537
-0.000146895
-0.0409091
-0.000301746
-0.00873189
-0.0479263
-0.00379958
0.00609313
-0.0605005
-0.00687428
0.00186961
-0.0355013
-0.000612341
-0.000301676
-0.0399439
-0.00327909
-0.000484965
-0.042608
-0.0037417
-0.000748066
-0.0454117
-0.00410153
-0.00040045
-0.0447471
-0.00397906
0.000141714
-0.0446428
-0.00405805
-0.000221051
-0.0456306
-0.00409887
0.000246733
-0.0424179
-0.00390059
-0.00232683
-0.0400762
-0.00351425
-0.00515209
-0.03534
-0.000563032
0.00731818
-0.0611802
-0.00679243
0.00180378
-0.0470077
-0.00361518
-0.00372799
-0.0408347
7.32793e-05
0.0130671
-0.0636089
-0.00822226
0.0055138
-0.0482319
-0.00307409
0.00245327
-0.0403145
-0.00103663
0.0173427
-0.0623191
-0.00981576
0.00458669
-0.0452796
-0.000697499
-0.00218976
-0.0367255
0.000835396
0.000929009
-0.0481763
-0.00345164
0.012907
-0.0551787
-0.0105697
0.021283
-0.0657926
-0.0113392
-0.00019516
0.00427473
-0.0360211
-0.0140991
0.00192953
-0.0223027
-0.0145758
-0.00152442
-0.0271464
-0.00969748
-0.00738595
-0.026967
-0.0154791
-0.00494226
-0.0226889
-0.0292015
-0.00179293
-0.0339417
-0.0145029
-0.0188015
-0.0721684
0.0040502
-0.0131601
-0.0629721
0.00634163
-0.00637621
-0.0552548
0.00108492
-0.00306549
-0.0306734
-0.00966846
-0.00747588
-0.0500044
0.0100972
-0.00756229
-0.06535
-0.00224092
0.000977551
-0.0491492
-0.00537537
-0.000513607
-0.051693
0.00365959
-0.00279185
-0.0617107
0.000450157
0.0036864
-0.0436929
-0.0108439
0.00161596
-0.0471955
0.0038431
-0.00521853
-0.0543046
0.000205625
0.00165123
-0.0309712
-0.00247627
0.000222039
-0.0342419
-0.00340067
-0.000264626
-0.03515
-0.00393136
-0.00131284
-0.037922
-0.00379232
-0.000679853
-0.0380068
-0.00369268
-0.00124824
-0.0384735
-0.00318755
-0.00210966
-0.0388219
-0.0038694
-0.00165391
-0.035958
-0.00653215
-0.000609419
-0.0377918
-0.00999557
0.00108144
-0.0340207
0.000892474
-0.00423528
-0.0595593
-0.001169
-0.00583079
-0.0461095
-0.0047409
-0.00184427
-0.0405259
0.0154235
-0.0123945
-0.0641669
0.00975992
-0.00714483
-0.0494394
0.00831873
-0.0051438
-0.0429432
0.0265479
-0.0163184
-0.056355
0.0162999
-0.00371956
-0.0379877
0.0156764
-0.00500186
-0.0290778
0.0243189
-0.0110737
-0.0380981
0.0334205
-0.0132621
-0.0371866
0.0379899
-0.0165895
-0.0283566
0.0181537
0.00400851
-0.0105631
0.00840479
-0.00020662
-0.00818172
-0.00331375
0.00403335
-0.00939381
-0.00666703
-0.00571742
-0.011568
-0.0144608
-0.0119159
-0.01511
-0.0237488
-0.0161927
-0.0277915
-0.00206808
-0.0371562
-0.0647108
0.0168653
-0.0267897
-0.0461416
0.0137747
-0.0158898
-0.0259497
0.00833738
-0.00896219
-0.00920452
0.00803763
-0.0101996
-0.00303596
0.00745277
-0.00218201
0.00361218
0.00461511
0.00166738
0.00358629
0.00043489
0.00638236
0.00130935
0.000354211
0.00508297
0.00417157
0.00406497
-0.00140596
-0.00358316
0.0372579
0.015088
-0.00716981
-0.0210747
0.00886031
0.00293208
0.00290402
-0.0119427
-0.0037465
-0.00526395
-0.0291011
-0.037377
0.00175984
-0.0357628
-0.0649832
0.00227947
-0.0397886
-0.0779861
0.037314
-0.01095
-0.0384895
-0.0537372
0.0110327
-0.00881448
-0.00635465
-0.00537148
-0.00533042
-0.0171935
-0.00557445
-0.0109757
0.00827083
-0.00511993
-0.0110252
-0.00101744
-0.00831774
-0.000339663
-0.00993217
-0.00262262
0.0057281
0.0282861
-0.0114326
-0.0251469
-0.00762825
-0.00797258
-0.0223095
-0.0336054
-0.000123185
-0.0219049
-0.0416572
-0.00975496
-0.0107246
-0.0238212
-0.0136656
-0.00596146
-0.0270563
-0.00698393
-0.0691287
0.00565737
-0.025386
-0.0682678
-0.00584283
-0.0138356
-0.0248221
-0.0170664
0.00102864
-0.024366
-0.0159898
-0.0780474
0.0095967
-0.0170181
-0.0743092
0.00152808
-0.013825
-0.0148123
-0.0171771
0.00273208
-0.0138722
-0.0177839
-0.0779697
0.00897117
-0.00686298
-0.0730065
0.0059309
-0.0128455
0.00131443
-0.0171285
0.00968476
-0.00669081
-0.0130658
-0.0732387
0.00439176
-0.0183399
-0.000992459
-0.018557
0.00836857
-0.00730301
-0.0122176
-0.0786349
0.00372221
-0.0187392
0.000456222
-0.0185996
0.00754787
-0.00648701
-0.0108146
-0.0800528
0.00258695
-0.0184145
-0.000386345
-0.0179738
0.00388247
-0.00627313
-0.00865094
-0.0769102
-8.35689e-06
-0.0165859
-0.00198566
-0.0126758
0.00609153
-0.00699317
-0.074315
0.0101497
-0.00830313
-0.0111478
-0.0808296
0.000801188
-0.0188231
-0.000487323
-0.0154513
0.00621621
-0.00538075
-0.081645
0.0118974
-0.0107637
-0.0118265
-0.0822785
0.000193125
-0.0188605
-0.00662273
-0.0154062
0.00444388
-0.0128485
-0.0781578
0.0205729
-0.0136382
-0.0215407
-0.076409
-0.000467197
-0.01585
-0.00929948
-0.0129265
-0.000717434
-0.0175431
-0.0575454
0.00726625
-0.0226662
-0.0679415
0.0158491
-0.0287035
-0.0748705
0.0241164
0.00252867
-0.0261211
-0.0595918
0.0130173
-0.0110789
0.00377306
-0.00883249
0.0116285
-0.016216
-0.0323977
0.0117361
-0.000571309
-0.0340086
0.00908824
-0.00870766
0.00384894
-0.0135541
-0.0117149
0.00573213
-0.00461554
-0.0619106
-0.00821067
0.000733298
-0.0554338
-0.0187168
-0.0502461
-0.00532124
-0.018092
0.00521199
-0.0335832
-0.00538482
-0.0340299
-0.049139
0.000477216
-0.047571
-0.0567809
0.00556348
-0.039473
-0.0637099
-0.0306487
-0.0721148
0.0100059
-0.0439437
-0.00611519
-0.0647252
0.00746021
-0.033251
-0.0652105
-0.0199073
-0.0792973
0.00912475
-0.0315431
-0.0133946
-0.0565981
0.00549943
-0.0237989
-0.0647398
-0.0166268
-0.0791182
0.0100422
-0.0271303
-0.0111927
-0.0583213
0.0049858
-0.0210264
-0.0622429
-0.0127652
-0.0767654
0.00735521
-0.0213485
-0.0144222
-0.0610793
-0.0127213
-0.0801269
0.00944023
-0.0214936
-0.0167829
-0.0635768
-0.0134467
-0.0805748
0.00999395
-0.0207566
-0.0190163
-0.066279
-0.0133476
-0.0802327
0.0112486
-0.0203111
-0.0198505
-0.0687106
-0.0125346
-0.0764789
-0.0214615
-0.0190947
-0.0706991
-0.0324124
-0.0276748
-0.0650952
0.0255435
-0.0415689
-0.030888
-0.0496756
-0.0293518
-0.0654745
0.0302674
-0.0366308
-0.0365928
-0.0438178
-0.0283415
-0.055008
0.0286778
-0.0369312
-0.0329175
-0.0367512
-0.0227418
-0.054268
0.0311299
-0.0260752
-0.038794
-0.0325564
-0.0200034
-0.0479191
-0.0242999
-0.0331188
-0.0320491
0.0228037
-0.113468
-0.0464453
0.0341768
0.0322567
-0.0809724
-0.0420569
-0.0226238
0.0431494
-0.122212
-0.096235
-0.096442
-0.0357729
-0.033049
0.0498129
-0.120132
-0.148514
-0.152009
0.0395522
-0.029228
-0.0486498
0.0313877
-0.0326193
-0.0552472
0.0240346
-0.0228718
-0.0757505
-0.0163885
-0.0813375
-0.0347377
-0.0204607
-0.0726465
-0.0403023
-0.0285455
-0.0592155
0.0337457
-0.0940615
-0.158048
-0.192981
0.0404057
-0.0441482
-0.0614246
0.0314359
-0.0265635
-0.0672765
-0.0133037
-0.078477
-0.0370548
-0.0164822
-0.0649583
-0.046972
-0.0302187
-0.0605671
-0.0651985
-0.0347847
-0.0583651
0.059546
-0.110663
-0.180568
-0.192823
0.0453126
-0.0266936
-0.0493821
0.0401223
-0.0324334
-0.0460735
0.0306233
-0.0144398
-0.0545627
-0.00359172
-0.0568126
-0.0337347
-0.000195804
-0.0279475
-0.0404453
-0.0114272
-0.0223535
0.0420901
-0.026234
-0.141335
-0.0605567
0.0331138
-0.00267411
-0.00253845
0.00410879
0.00149896
-0.00348891
0.000751843
0.0641866
-0.0245758
0.00109967
0.104577
0.013491
0.0172586
-0.0214115
0.324149
-0.00448846
0.00796575
0.0819502
-0.00859894
0.00315438
0.0438836
0.00253624
0.0156341
-0.0305818
-0.0317211
-0.0414194
0.00810369
-0.0549905
-0.0418659
0.00871867
-0.0742832
0.0466718
0.0119617
-0.155498
-0.28231
0.0452583
0.00753538
-0.0770042
0.00494769
-0.0642451
-0.0449881
0.000383651
-0.0775543
-0.0365198
0.000889763
-0.093732
0.0284708
-0.00901744
-0.0317681
-0.126642
-0.373988
0.040356
-0.00717974
-0.0893431
0.00198114
-0.0798174
-0.0356001
-0.0647965
-0.0392297
6.34092e-05
-0.0894185
-0.0394912
-0.00438001
-0.0901061
-0.0464464
-0.0101809
-0.0863715
0.0221191
-0.0212965
0.0183993
-0.0696205
-0.13158
0.0186464
-0.00766504
0.00593132
0.0178893
-0.00166252
0.032952
0.000210705
0.0432633
-0.00607544
-0.00388451
0.0447666
-0.00705531
-0.000863115
0.0481652
-0.0187105
-0.00196529
0.05559
0.0103467
-0.0105996
0.155468
0.00532891
0.000164372
0.00447484
-0.000370384
0.0336862
0.00334175
-0.00110579
0.0283655
0.026089
0.0224058
0.00776599
-0.000516608
0.00173204
0.0122745
-0.00273791
0.0200459
0.0043463
-0.0115223
-0.0143469
-0.00777153
0.022104
0.0122905
-0.00494373
-0.0103748
0.00761056
-0.00663823
-0.004104
-0.00332773
0.00568792
-0.00319943
-0.00579227
0.000101542
0.0016166
-2.91948e-05
-0.000423553
0.000253737
0.000661492
-3.70291e-05
0.00590575
0.000414008
0.000749332
0.00138155
0.000308772
0.00236261
-0.000207006
3.28802e-05
0.00228202
-0.00135627
0.00105455
0.00299798
-0.00149308
-0.00051899
0.00185742
-0.000673941
0.000855731
0.00116834
0.00138085
7.26012e-05
0.000190292
0.00275009
0.000603184
1.05799e-05
0.00253072
0.000306348
3.63127e-05
0.00208237
0.000233863
9.62418e-05
0.00179012
0.000141306
-0.000123465
0.00369303
0.000202288
6.89625e-06
0.00233357
0.000200173
0.000101932
0.00196838
0.000165906
-0.000147315
0.00405374
0.000217293
8.39127e-06
0.00248775
0.000228075
0.000128331
0.00206295
0.00019149
-7.75604e-05
0.00413986
0.000304328
7.42588e-05
0.00257146
0.000292243
0.000228579
0.00210773
0.000193467
0.000126583
0.00241102
0.000288523
0.000792689
-0.000322212
0.000106175
0.0018627
-0.00158045
-0.000309527
0.000362062
0.000314644
3.90474e-05
-0.000335858
0.000120723
-0.000147425
-0.0010255
6.07174e-05
-1.16316e-05
-0.0016042
-0.000330778
0.000210365
-0.00161017
-2.31093e-05
-0.000280121
-0.00331051
0.0023465
0.000782894
-0.00079514
0.000993308
-0.00176282
-0.00258616
0.00209209
-0.00135326
-0.00546112
0.000913216
-0.00173403
-0.00832953
-0.00113838
-0.00153844
-0.0173048
-0.00311279
0.00310701
-0.0168736
-0.0129232
-0.00390776
-0.0183943
-0.00839274
-0.00352678
-0.0329376
-0.00791237
0.00488351
-0.0230239
-0.0221922
-0.0165918
-0.0219758
-0.0171382
-0.00693197
-0.0322624
-0.0184026
0.000133622
-0.0151441
-0.0390524
-0.0199508
-0.0125874
-0.0226136
-0.0076434
-0.0146098
-0.023988
-0.00555797
-0.00869699
-0.0310651
-0.0117399
-0.00544475
-0.0328928
-0.0094526
0.00104092
-0.0343227
-0.0115316
0.00718027
-0.0353118
-0.01131
0.00889529
-0.0347093
-0.00751553
0.0123281
-0.0346631
-0.00972894
0.00525697
-0.0320125
-0.00113507
0.000135784
-0.0294466
-0.00288396
0.00920627
-0.0538444
-0.0100338
-0.000546
-0.0348034
-0.00131529
-0.00631369
-0.02393
-0.0024841
-0.000386146
-0.0537417
-0.0123847
-0.00255144
-0.0414583
-0.00787286
-0.00656457
-0.0331776
-0.00442743
0.00630115
-0.0591357
-0.0146431
0.00243661
-0.0352621
-0.00462059
-0.000952051
-0.0281422
-0.00347543
0.00705383
-0.0448563
-0.0126568
0.0192083
-0.0496929
-0.0182662
0.0343983
-0.0559606
-0.0211187
0.0102303
-0.00748238
0.0019697
0.0119631
-0.0167094
-0.00516951
0.00799544
-0.0180662
-0.00164039
-0.00367398
-0.0168753
0.00577845
-0.00759585
-0.0135807
-0.00189467
-0.0311038
-0.00891832
0.00282739
-0.0193008
-0.0583932
-0.0169128
-0.00634916
-0.0540856
-0.0156803
-0.00166969
-0.0431131
-0.0113358
-0.00364538
-0.0205961
-0.00685767
-0.0157251
-0.028813
-0.00552473
0.0013954
-0.0551162
-0.0213091
-0.00313605
-0.0257371
-0.00807383
-0.0125643
-0.0330236
-0.00574284
0.00315795
-0.0637733
-0.0170117
-0.000205281
-0.0342961
-0.00324979
-0.00378013
-0.0388277
-0.00552385
0.00615613
-0.0578942
-0.0125427
0.00186711
-0.0284377
-0.00277469
0.000109759
-0.032718
-0.00546863
-0.000836197
-0.0355057
-0.00615637
-0.000763938
-0.0389204
-0.0065636
-0.000345992
-0.038562
-0.00660302
-3.39945e-06
-0.0385048
-0.00648063
0.000267035
-0.0391839
-0.00671718
-0.00049699
-0.0355048
-0.00614905
-0.00196683
-0.0329352
-0.00567123
-0.00599871
-0.028581
-0.0027273
0.00351069
-0.0582687
-0.012421
0.000427914
-0.0386475
-0.00527758
-0.00391935
-0.0336778
-0.00280981
0.0087702
-0.0627859
-0.0135127
0.00400853
-0.0398491
-0.00362137
0.00100292
-0.0332134
-0.00409563
0.0124043
-0.0595788
-0.0141417
0.00320043
-0.0352115
-0.000864446
-0.00345179
-0.0281154
-0.00195765
-0.000828915
-0.0432094
-0.00758999
0.00888252
-0.0502445
-0.0146457
0.0200885
-0.0614513
-0.0155479
-0.000210919
-0.0172968
0.00157518
-0.0104761
-0.0131706
0.00113284
-0.0134654
-0.00155082
-0.0226067
-0.0106609
-0.00736198
-0.0224097
-0.00898621
-0.0182845
-0.00607918
-0.0310877
-0.0116817
-0.000158668
-0.0112802
-0.0678586
-0.0241179
0.00266253
-0.058962
-0.0179532
0.00344067
-0.0440324
-0.0120007
0.00120291
-0.0218156
-0.00661991
-0.00514902
-0.0357619
-0.00789066
0.00856775
-0.0649099
-0.0141571
0.00112372
-0.0387752
-0.00292971
-0.00354551
-0.0432715
-0.00375185
0.00554857
-0.062102
-0.00870414
-0.000522704
-0.0366978
-0.000923589
-0.00738594
-0.0397221
-0.000610444
0.00397589
-0.0556421
-0.0100251
0.00038832
-0.0268339
-0.000549869
-0.00240763
-0.0300826
-0.00136344
-0.00376393
-0.0312392
-0.00255483
-0.00416625
-0.0358513
-0.00166866
-0.00334761
-0.0358344
-0.00299136
-0.00387318
-0.0364697
-0.0014785
-0.00173657
-0.0365929
-0.00436576
-0.00370829
-0.0314247
-0.00256162
-0.00516646
-0.0323415
-0.0039923
-0.0107539
-0.028345
-8.82419e-05
-0.00254315
-0.0569307
-0.0108399
-0.00207134
-0.0380534
-0.00852784
-0.00483054
-0.0331856
-0.00458135
0.01094
-0.0619096
-0.0180277
0.00808126
-0.0381462
-0.00843475
0.0066998
-0.0332937
-0.00826771
0.0231696
-0.0522179
-0.0206072
0.0141697
-0.0266116
-0.00237615
0.0141769
-0.0221787
-0.0069064
0.0237026
-0.0337555
-0.0138681
0.030626
-0.0277617
-0.0163482
0.0322259
-0.01328
-0.0166766
0.00978183
0.00631279
0.0055682
0.00669479
9.73213e-05
-0.00519209
-0.005839
-0.0024845
0.00562454
-0.0111753
-0.00682208
0.000590695
-0.00805464
-0.00947881
-0.00875165
-0.0242681
-0.00250525
-0.00907262
0.00588932
-0.0577607
-0.0371076
0.0176659
-0.0300135
-0.0279042
0.0133215
-0.0065486
-0.0150562
0.0115299
-0.00423315
-0.00317929
0.0133489
-0.00205608
-0.00279856
0.00854969
0.00702631
0.00138553
0.00543365
0.00425172
0.00245086
0.00431906
0.00641092
0.00108621
8.94246e-05
0.0113707
0.00519822
0.000679953
0.000879464
0.00109351
-0.00292368
0.00480033
0.00481658
-0.0037819
0.00245296
0.00741781
-0.00505622
-0.00531564
0.00744434
-0.00996546
-0.0165176
0.0264567
0.01148
0.0388838
-0.0208136
-0.0178673
0.0267407
0.00604262
-0.0034345
-0.00693604
0.00334715
-0.0019852
-0.017802
0.00989876
0.0072812
-0.00631312
-0.0103489
-0.00948513
0.00964529
-0.0032532
0.00472971
-0.00613594
0.00024195
0.00249848
-0.00326118
-0.00273196
0.00103643
-0.000144016
-0.000265414
-0.000384703
0.00175502
-1.77594e-06
-0.000923315
0.000748749
-0.000454462
0.000104769
0.000348224
-0.000507136
-0.000585094
-6.97352e-05
-0.000104248
-0.000151292
-0.000580909
0.00156871
0.000323657
-0.000382515
0.00214553
0.000406684
-0.000348829
0.00186889
0.000628497
-5.92685e-05
0.00130437
0.000488799
7.4314e-05
0.00126138
0.00039538
-0.000155673
0.00299324
0.000930095
-1.09058e-05
0.0016611
0.000528079
0.000143864
0.00136147
0.000452372
-0.000180507
0.00335377
0.00102464
-8.44154e-06
0.00176271
0.000553321
0.000179192
0.00140012
0.000475395
3.51196e-05
0.0032534
0.00103079
0.000150805
0.00185941
0.000596647
0.000610669
0.00129012
0.000357909
0.00113747
0.00152337
0.000361042
0.00127302
-2.38932e-05
-0.000433641
0.000488701
-2.05742e-05
-0.000775244
-0.00126745
0.000397341
0.00157722
-0.000218156
0.000864322
-0.00169575
0.000519215
0.0011645
-0.000421664
0.000844993
-2.29325e-05
-0.00024192
0.000573425
-0.000341583
0.000282562
-0.000898408
0.00194231
-0.000798138
0.000327747
0.000937928
0.000487442
0.00315622
0.000714969
-0.000990454
0.00399306
0.00140796
-0.00125114
0.00512842
0.00181287
-0.000855831
0.00587612
0.00100129
-0.000835504
0.00288409
0.000759912
0.00109408
0.000491724
-0.00210441
0.00138415
-0.0106259
-0.00218248
0.000377226
-0.0109467
-0.00507663
-0.00299521
-0.027158
0.00212676
0.00617208
-0.0197218
-0.0178002
-0.0118281
-0.0160746
-0.011744
-0.00904135
-0.032871
-0.000872432
-0.000733618
-0.012532
-0.0346177
-0.0247737
-0.00865622
-0.0163764
-0.010113
-0.0156825
-0.0109917
-0.0059701
-0.00665496
-0.0253404
-0.0147523
-0.00631707
-0.0222988
-0.010932
0.000718718
-0.0278917
-0.013467
0.00825255
-0.0286752
-0.0141706
0.00659922
-0.0240301
-0.00902627
0.012021
-0.0271722
-0.0129129
0.00305996
-0.0185297
-0.00452237
-0.00208824
-0.0181413
-0.00615749
0.00479274
-0.0436351
-0.0170909
-0.00368906
-0.0217438
-0.00457805
0.0119307
-0.0139924
-0.00162747
-0.0101643
-0.00183524
-0.00157748
-0.0421455
-0.0201834
-0.00144319
-0.0304823
-0.0111104
-0.00578277
-0.0203702
-0.00846822
0.00615398
-0.0476768
-0.023396
0.00153258
-0.0227719
-0.00786915
-0.00177269
-0.0174737
-0.00736359
0.0031141
-0.0327789
-0.0169643
0.0124398
-0.0400744
-0.0189446
0.0173052
-0.041638
-0.0191881
0.0348245
0.0330531
-0.0383619
-0.0122107
0.0011367
0.00949595
0.0159077
0.00598473
0.0122974
0.00522823
-0.00530821
-0.00207881
-0.0103901
-0.00452099
0.00326366
-0.0227512
0.00204185
0.00141734
0.00890187
0.0306823
-0.0335434
-0.0105044
-0.00938609
0.0102251
0.00437159
0.00105641
0.00324303
0.0015543
-0.00261785
0.00375745
0.00370424
-0.000472381
0.00636968
-0.00792734
-3.95096e-06
0.00858768
0.000943598
-0.00316169
0.00526444
-0.0106783
0.00185987
-0.00673972
0.011702
-0.0251932
-0.00684641
0.0181814
-0.00093605
-0.041282
-0.00080252
0.0209782
-0.0080198
-0.0238183
0.00146771
0.0139641
-0.00100642
0.00633183
0.00595782
0.00815116
0.0416453
0.00791449
0.0769518
0.00986351
0.0112686
0.0820022
0.013613
0.13047
0.0112532
0.0916772
-0.0138865
0.22576
-0.00600381
0.0965968
-0.0102804
0.293996
-0.00626009
0.0165195
0.0147457
0.442129
-0.0778203
-0.0102244
0.00733539
0.520855
-0.0076793
0.0706204
0.0731799
0.0814573
-0.0218733
1.78054
0.0604954
0.0762424
0.0597531
0.0545523
-0.0123887
1.93948
0.00412877
0.00960364
-0.0323619
0.512203
0.0339237
0.00515353
-0.00746182
0.36251
0.0349569
0.0070796
0.00921274
0.460161
0.0400794
0.0642863
0.0050054
0.338276
0.0530251
0.0131733
0.36649
-0.168057
-0.111318
0.110894
-0.131277
-0.162037
0.123907
-0.175703
-0.223686
-0.177356
-0.170339
0.12871
-0.119785
-0.128704
-0.125001
-0.12375
-0.0864726
0.0855878
-0.0476912
-0.0304442
0.0725918
-0.0680243
-0.0395921
0.133806
-0.0302586
-0.0471212
0.0412149
0.0634725
-0.0586926
0.0709735
-0.102733
0.0231059
-0.0156216
0.0463282
-0.0338334
0.0150093
-0.0342835
-0.0395601
-0.0282942
-0.0660425
-0.0270333
0.0501299
0.0316802
-0.0349328
-0.065531
0.0357626
0.0658524
-0.0294451
-0.01315
0.032029
-0.0719519
0.0520955
-0.0339559
-0.0698493
0.0326471
-0.0297471
0.0537985
-0.0854424
0.0410943
0.0126811
-0.0381827
-0.00682538
-0.0173985
-0.0282741
-0.0329441
-0.00716646
0.0626176
-0.0256032
-0.036673
-0.00597517
0.0787757
-0.0444367
-0.0355299
-0.00479695
0.070622
-0.0417337
-0.0300661
-0.00133422
0.0799104
-0.036135
-0.0472382
0.00137127
0.0791482
-0.0354239
-0.0464296
0.0043161
0.0774071
-0.0342372
-0.0461151
0.00675807
0.0847097
-0.0384431
-0.0487079
0.00734824
0.0730108
-0.030794
-0.0428069
0.00641615
0.0848558
-0.0376545
-0.0462689
0.004117
0.0705526
-0.02856
-0.0396933
-0.0255868
0.090958
-0.027731
-0.0335234
0.00104054
0.0849716
-0.0654546
-0.0461448
-0.00040141
0.0743851
-0.0407459
-0.0321974
-0.030533
0.0865799
-0.0306018
-0.0258464
-0.0089406
0.0743841
-0.0390676
-0.0569093
-0.0102296
0.0746662
-0.0346211
-0.0387567
-0.0352322
0.0675925
-0.0195462
-0.0230433
-0.0357064
0.0576417
-0.0343053
-0.0228622
-0.00819099
0.031551
-0.0316338
-0.0274327
0.0263969
-0.0281157
0.00168949
-0.00816141
0.0339508
0.0217376
-0.0237577
-0.00553348
0.0163266
0.0799835
-0.0466051
-0.0157539
-0.00975453
0.0831639
-0.0442218
-0.0128608
-0.0381435
0.0644282
-0.028537
-0.0075025
-0.040619
-0.025199
0.00681553
0.0208585
-0.0483399
0.00236019
0.00416396
0.0012002
-0.0417938
-0.00894933
0.0159455
-0.0135387
-0.0254315
-0.00654048
-0.0156879
0.00586869
-0.0167574
-0.004078
-0.0130831
0.0084892
-0.00882452
0.00608563
-0.00755098
-0.00646583
-0.013682
-0.00487766
0.00521217
0.00452437
-0.00800341
-0.00817552
0.00722934
-0.00448059
0.00496822
-0.00599094
-0.00119762
0.00129102
-0.00471686
-0.000187043
-0.00197136
-0.00257966
0.00584696
0.0013426
-0.00479675
0.00036326
-0.00147716
-0.0044368
0.00625389
0.00215311
-0.00360666
0.00141724
-0.0018384
-0.00289127
0.00544649
0.00209971
-0.0032376
0.000983427
-0.00130817
0.00202223
0.00440854
-0.00245378
-0.00337311
0.00596757
0.00263111
-0.003203
0.00109532
-0.00144503
0.00214356
0.00497406
-0.00266827
-0.00364596
0.0066802
0.00238568
-0.00327596
0.00103892
-0.00152136
0.00216568
0.00482822
-0.00270131
-0.00327823
0.00618967
0.00260765
-0.00335315
0.00138444
-0.00151246
0.00149721
0.00344558
-0.00203479
0.00128518
0.00308488
-0.00289637
0.00110114
0.00402898
-0.00386509
0.00237549
0.00525499
-0.00495156
-0.00129055
0.00240517
0.00606498
-0.00480381
0.00123754
-0.0013858
0.000387399
-0.000289265
0.00204768
0.00554236
-0.00479696
0.00295238
0.00581005
-0.00599928
0.00400545
0.00760603
-0.00725072
0.00550989
0.00738046
-0.00707158
0.00609836
0.00404221
-0.00362898
0.00432093
0.000433528
0.0146286
-0.0128413
0.017408
-0.0148742
0.00390653
0.0111488
-0.00260849
-0.00181516
0.00277224
0.000623149
-0.0181425
0.0296387
-0.0139348
-0.0124003
-0.0107904
0.00601404
-0.0303787
0.00536205
-0.00620574
0.00590862
-0.0406775
0.0105955
-0.00146978
-0.0532033
0.01385
-0.0379475
0.00910975
0.0205314
-0.0218032
-0.0543633
0.0176878
-0.0432016
0.0160937
0.0394454
-0.0541225
-0.0502944
0.02177
-0.0349031
0.0177815
0.0453941
-0.0595618
-0.0438871
0.0231517
-0.0248451
0.0190361
0.0358702
-0.054165
-0.0318352
0.0252846
-0.0164716
0.0156698
-0.0368218
-0.0508341
0.0275485
0.0348583
-0.055448
-0.0393416
0.0231085
-0.0131199
0.0122417
-0.0272255
-0.0546427
0.0266017
0.0514299
-0.0737397
-0.031417
0.0265017
-0.0172676
0.0178443
-0.0262236
-0.0644367
0.0257153
0.0456098
-0.0720057
-0.0234876
0.0236598
-0.0108576
0.0162208
-0.00286643
-0.058907
0.0181369
0.00302277
-0.0658764
0.0199126
0.00726366
-0.0661202
0.0202412
0.00889401
-0.060196
0.0202038
0.0135044
0.000371908
-0.020602
0.0156197
0.00503236
0.00914868
-0.00791492
0.00984382
-0.00288671
-0.0271475
0.022491
-0.00177715
-0.0540788
0.019426
0.0405882
-0.0588422
-0.00273022
0.0192069
-0.0123544
-0.0159554
-0.00690293
-0.0424116
-0.0171259
-0.00515683
-0.0324145
-0.012445
0.0114073
-0.014184
-0.00238032
-0.0065887
-0.00260025
-0.0163485
-0.0155794
-0.00347393
-0.00127171
-0.0491828
-0.0210103
0.0176567
-0.0162436
-0.00268492
-0.00511958
-0.00296097
-0.00909452
-0.0226928
-0.00635609
0.00545857
-0.0550413
-0.0232854
0.000314537
-0.0215491
-0.00760326
-0.00158845
-0.0273834
-0.00954144
0.00623603
-0.0450958
-0.0206232
0.00148376
-0.0175349
-0.00615066
-0.000404781
-0.0221942
-0.00863532
-0.000693379
-0.025029
-0.0101882
-0.00120445
-0.0281309
-0.0102786
-0.000315895
-0.0288701
-0.0105807
5.18684e-05
-0.0285481
-0.0103247
0.000128103
-0.0285851
-0.0106752
-0.000237292
-0.0249689
-0.0101706
-0.00160827
-0.0226054
-0.00895892
-0.00635086
-0.0176547
-0.00618381
0.00124574
-0.0453328
-0.0205326
-0.000370735
-0.0274653
-0.00956558
-0.00539593
-0.0214481
-0.00720449
0.0063222
-0.0520664
-0.0224376
0.00209847
-0.0272045
-0.00842083
-0.00105807
-0.021566
-0.00849082
0.00908221
-0.047539
-0.0221801
0.00163994
-0.0221205
-0.00564862
-0.00356711
-0.0170666
-0.00584156
-0.00306986
-0.0313309
-0.0123759
0.00258499
-0.0161962
-0.0397035
-0.00054814
-0.0426228
-0.0156955
0.00535935
0.0328719
-0.0355885
-0.00319121
0.0143307
0.00310193
-0.0143481
0.00227447
0.0167353
0.00592767
0.00387333
0.00401132
0.00292322
-0.00151643
0.00781208
-0.00159575
0.00122779
0.00675523
-0.000352142
-0.00404629
0.00150139
-0.00345401
-0.00424101
-0.000250258
-0.0280456
0.000165101
-0.011725
-0.0123519
-0.00343156
-0.010316
0.00115669
-0.0228655
-0.0126543
0.00881965
-0.0459655
0.0117538
0.0257009
-0.014355
-0.0749707
0.018447
0.0195866
-0.00902853
-0.00153725
0.0166368
-0.0414851
-0.048585
0.0122969
-0.0389341
-0.0494171
0.0745171
0.0144381
0.0948806
-0.0400874
-0.0569342
0.0118982
-0.0578813
-0.0383913
0.0988129
0.0075889
-0.0366542
-0.0525591
0.0935222
-0.017552
0.0876368
-0.0332132
-0.0292832
-0.0173914
0.0485696
-0.0315602
-0.01717
0.013327
-0.0488534
-0.0655486
0.0836836
0.0147643
0.0849742
-0.0488879
-0.037524
-0.0105521
0.0815361
-0.0295724
-0.026648
-0.0106608
0.052328
-0.0310538
-0.0211657
-0.00952615
0.0736941
-0.0395019
-0.0353275
-0.00514782
0.0591497
-0.0364268
-0.0271013
0.0229195
0.0721056
-0.0434957
-0.0566771
0.000259271
0.0738832
-0.0269588
-0.0242649
0.00046138
0.0628926
-0.0346372
-0.0284578
0.000973222
0.064069
-0.0354858
-0.0290956
0.00157803
0.06609
-0.0366393
-0.0300558
0.00169191
0.063294
-0.0354075
-0.0280008
0.00175924
0.0649141
-0.0358483
-0.0291334
0.000358771
0.06044
-0.0333906
-0.025649
-0.0220675
0.0707909
-0.0268593
-0.0215059
0.00283361
0.0708912
-0.0576177
-0.0381745
0.00498424
0.0625017
-0.0254799
-0.0391729
0.00369594
0.0710165
-0.0296847
-0.0400431
0.00157871
0.0606312
-0.0353096
-0.0232046
-0.0271601
0.0766409
-0.0277226
-0.0201798
-0.0338226
0.0793671
-0.045415
-0.0272898
-0.00794668
0.0749199
-0.0377757
-0.06302
-0.00639726
0.0683213
-0.0412812
-0.0285894
-0.0291861
0.0637947
-0.0241706
-0.016835
-0.0301252
0.0523984
-0.0326124
-0.0188463
-0.0152796
0.010574
-0.021594
-0.00382515
0.0128499
-0.0299274
0.00703183
-0.00523387
0.0274285
-0.0361681
0.0218431
-0.000253192
0.0259694
-0.0369152
0.0176656
0.0207096
0.0174039
0.0652556
-0.0418407
-0.0148489
-0.00916865
0.0972728
-0.0536365
-0.0170639
-0.0249069
0.0503065
-0.0297665
-0.00480105
-0.0233305
-0.00495841
0.00169902
0.00168493
-0.0468511
-0.0244473
0.0241801
0.0237897
0.0112006
0.00472751
-0.0238916
0.0133182
0.000180272
-0.0253872
0.0427375
-0.012978
-0.015871
-0.0100094
-0.00669937
-2.01368e-05
0.020214
-0.0215948
0.00612166
0.0248762
-0.0160407
-0.0280563
0.0181307
0.0286043
-0.0220708
0.00606833
-0.024609
-0.0228109
0.0311343
0.0183026
-0.0147307
0.00885092
-0.0108422
-0.00715862
0.00718163
-0.00758438
-0.00716787
-0.00501949
0.00398236
-0.00219652
-0.00392396
-0.00831553
-0.00264891
0.00305691
0.00288917
0.00490914
-0.00608377
-0.00220297
0.00375064
0.000714243
-0.00798033
-0.00201335
0.00498821
0.00280342
0.00514719
-0.00552791
-0.00162927
0.00378148
0.000983197
-0.00721782
-0.00133273
0.00451058
0.00241154
0.00512428
-0.00473974
-0.000951176
0.00350148
0.00124267
-0.0070574
0.00323385
0.00137318
0.00150003
0.00303687
-0.00358382
0.00580296
0.00820102
-0.00499855
-0.00123031
0.00119974
0.00429914
0.00153517
-0.00687302
-0.0011143
0.004435
0.00232296
0.00488309
-0.00414884
-0.00084045
0.00333594
0.00127443
0.0015316
0.00292573
0.00138359
-0.00795588
0.00551719
0.00191294
0.00205792
0.00340202
-0.00414207
0.00600032
0.00888661
-0.0052944
-0.000711632
0.00110778
0.00416709
0.00143772
-0.00722779
0.0032926
0.00188274
0.0013416
0.00251418
-0.00368719
0.0024792
0.00777537
-0.00465503
0.00283065
0.00924336
-0.00556506
0.00360515
0.0110296
-0.00654828
0.00438173
0.0122941
-0.00700471
0.00472684