/*--------------------------------*- C++ -*----------------------------------*\
  =========                 |
  \\      /  F ield         | OpenFOAM: The Open Source CFD Toolbox
   \\    /   O peration     | Website:  https://openfoam.org
    \\  /    A nd           | Version:  7
     \\/     M anipulation  |
\*---------------------------------------------------------------------------*/
FoamFile
{
    version     2.0;
    format      ascii;
    class       volVectorField;
    location    "18.8";
    object      U;
}
// * * * * * * * * * * * * * * * * * * * * * * * * * * * * * * * * * * * * * //

dimensions      [0 1 -1 0 0 0 0];

internalField   nonuniform List<vector> 
15142
(
(0.554664 0.33659 1.22588)
(0.30346 0.197125 1.22867)
(-0.0270748 0.291437 0.830273)
(0.0545859 0.144166 0.851923)
(0.0941766 0.0459844 0.814067)
(0.081741 0.0345156 0.715925)
(0.0339292 0.0664902 0.551567)
(-0.0414126 0.100431 0.426558)
(-0.28726 0.247593 0.11392)
(-0.396649 0.306628 -0.0851884)
(-0.381568 0.347963 -0.142356)
(-0.237271 0.27819 0.0554434)
(-0.0513196 0.165631 0.263886)
(0.00626788 0.0626815 0.371547)
(0.0234249 0.0357639 0.372447)
(0.0307122 0.0225565 0.366729)
(0.0378521 0.0181238 0.377288)
(0.032463 0.0189385 0.363592)
(0.0328432 0.0204193 0.352985)
(0.0373383 0.0197054 0.376268)
(0.0329501 0.021251 0.367768)
(0.0338998 0.0224441 0.367556)
(0.0415993 0.0163748 0.39857)
(0.0409011 0.0110559 0.396741)
(0.0663593 -0.0199097 0.387087)
(0.125617 -0.117642 0.248291)
(0.135103 -0.29121 0.00483996)
(0.0466357 -0.356249 -0.107973)
(-0.0708562 -0.629579 -0.174718)
(-0.136373 -1.02501 -0.319366)
(-0.257416 -1.16541 -0.29041)
(-0.368336 -1.31639 -0.303059)
(-0.520602 -1.5192 -0.319307)
(-0.620169 -1.53094 -0.254206)
(-0.752877 -1.5361 -0.172609)
(-0.998898 -1.83725 -0.507972)
(-1.23195 -2.21216 -0.939927)
(-1.62569 -2.55074 -1.57916)
(-1.96728 -2.69137 -1.9877)
(-2.28321 -2.85208 -2.07236)
(-2.85261 -3.11727 -2.78262)
(-3.28304 -3.04231 -3.25482)
(-3.51849 -2.92861 -3.5069)
(-3.81614 -2.93548 -4.36463)
(-3.93686 -2.54379 -4.8647)
(-3.7109 -1.88484 -5.09461)
(-3.70807 -1.85447 -5.95105)
(-3.54241 -1.10441 -6.35253)
(-2.98146 -0.0541074 -6.51701)
(-2.78975 0.365122 -6.77251)
(-1.6933 1.79877 -6.68113)
(-1.2982 1.93747 -6.76868)
(-0.210217 2.81434 -6.92037)
(0.28084 2.79619 -7.03346)
(0.835465 3.03453 -7.70778)
(0.344406 2.01723 -7.99202)
(-0.924077 1.92971 -6.28445)
(-0.737824 2.1935 -7.09899)
(-1.55687 1.72109 -7.14343)
(-2.05825 1.89133 -6.35975)
(-1.54125 2.14555 -7.21581)
(-1.56401 1.94074 -7.05909)
(-1.53443 2.41072 -6.2969)
(-0.652462 2.62297 -6.51152)
(-0.1083 2.4408 -6.47392)
(0.527104 2.83127 -6.45409)
(1.33063 3.03136 -6.04848)
(2.19576 2.91763 -5.70594)
(2.77516 2.91186 -5.63895)
(3.22543 2.30453 -5.04208)
(3.66338 1.52044 -4.54764)
(1.54401 0.54719 -4.66915)
(-2.50982 1.4535 -5.25701)
(-2.5779 2.23109 -5.4273)
(-2.34868 2.30314 -5.54314)
(-1.88243 2.39259 -5.84879)
(-1.35929 2.10581 -6.21655)
(-1.79987 2.24349 -6.98583)
(-0.839277 2.51773 -6.85637)
(0.115547 2.49014 -6.4957)
(-0.137601 2.48229 -7.93523)
(0.546422 2.73535 -7.25688)
(1.29466 2.4045 -6.76991)
(1.12561 1.81841 -7.21912)
(1.03986 2.22644 -7.40325)
(1.59557 2.00435 -7.04325)
(1.43961 1.56206 -7.56)
(1.20028 1.79449 -7.49902)
(1.48102 1.46289 -7.45079)
(1.16458 1.82 -7.61184)
(1.61371 1.25948 -7.43775)
(1.16553 1.72697 -7.42667)
(1.76696 1.25607 -7.62137)
(1.41516 1.59894 -7.41359)
(1.84197 1.24713 -7.48452)
(1.6313 1.41254 -7.50763)
(2.08086 1.55514 -7.09926)
(2.35144 1.02518 -7.24769)
(2.01288 1.02468 -7.2018)
(2.44514 1.2474 -6.56243)
(2.79711 0.618438 -6.86051)
(2.57832 0.315413 -6.82272)
(2.69521 0.087911 -6.56298)
(2.76303 -0.253419 -7.01731)
(2.15527 0.120379 -7.17997)
(2.39516 0.577345 -6.33206)
(2.90145 -0.170382 -5.91115)
(2.49103 -0.741896 -5.90099)
(1.8654 -0.872011 -6.50298)
(0.756706 2.81015 -5.72052)
(1.40565 3.5597 -4.8379)
(1.97008 3.54301 -4.87916)
(2.51653 2.58142 -5.48492)
(3.03676 1.95596 -6.06735)
(3.00651 1.279 -6.25967)
(2.97988 0.211687 -6.53109)
(2.42354 -0.620424 -7.10052)
(1.95646 -0.850431 -7.31239)
(1.91356 -1.543 -7.38078)
(1.63432 -2.20463 -6.90934)
(1.22683 -1.82423 -8.21664)
(1.94118 -1.13422 -7.34174)
(2.05623 -1.61483 -6.12611)
(1.41254 -1.24317 -7.52721)
(2.30183 -0.623674 -6.99191)
(2.33848 -1.17651 -6.04778)
(1.78929 -1.17613 -6.1856)
(1.82602 -0.960122 -6.09755)
(1.49222 -0.728558 -5.8373)
(1.7584 -0.444989 -6.10904)
(1.23769 -0.816386 -5.94852)
(1.86185 -0.302512 -6.12454)
(1.42706 -1.0095 -6.17609)
(1.79044 -0.771807 -6.19544)
(1.91595 -1.08803 -6.67281)
(2.21746 -0.986531 -7.05972)
(2.32348 -1.48156 -6.77235)
(1.71995 -1.93284 -6.98649)
(1.38389 -1.92594 -7.14142)
(1.24517 -2.6352 -6.74183)
(0.221613 -2.96052 -7.25563)
(-0.662239 -2.90803 -7.62352)
(-0.810515 -3.16847 -6.22987)
(-1.81166 -3.36371 -6.20473)
(-2.65809 -3.09206 -5.81363)
(-3.32748 -2.90793 -5.27807)
(-3.60531 -2.60067 -4.50751)
(-3.72256 -2.3162 -3.45055)
(-3.91833 -2.11122 -3.20502)
(-3.70983 -1.47007 -3.03712)
(-0.8995 -0.36238 -2.78992)
(2.54642 -1.13956 -3.38351)
(2.11542 -2.90266 -5.63214)
(0.96903 -3.72508 -6.52617)
(-0.589027 -3.86208 -6.50618)
(-1.88756 -3.48617 -6.11589)
(-2.96871 -2.51947 -5.27807)
(-3.11711 -1.60411 -4.45041)
(-2.08965 -0.920213 -1.43738)
(-1.82956 0.0620237 0.106973)
(-1.00448 0.375647 0.325922)
(-0.354601 0.385892 0.739521)
(0.602871 0.114459 1.57114)
(0.528904 0.510812 1.66569)
(0.906447 0.0664696 2.81304)
(-0.409953 -2.31685 -0.233627)
(-0.455693 -1.60995 0.246923)
(-1.05607 -2.50087 -3.79515)
(-1.06849 -3.45531 -4.94646)
(-0.779353 -4.50419 -6.15049)
(-0.736029 -4.49926 -5.83702)
(-0.423383 -3.9918 -4.61785)
(0.0690293 -3.7044 -4.86833)
(0.444936 -2.66215 -4.1217)
(-0.25379 -1.06175 -2.21828)
(-1.95203 1.31489 -0.910751)
(-3.0394 0.289785 -0.33805)
(-3.05513 -0.683089 -0.424754)
(-1.02261 -0.0785567 2.02317)
(-1.3984 -2.09945 -1.28732)
(-0.960989 -2.2512 -3.60049)
(-0.547736 -2.47547 -5.13976)
(-1.4821 -1.9874 -5.78868)
(-1.28536 -2.6787 -6.12696)
(0.176498 -3.31778 -5.88882)
(0.839532 -2.79117 -5.95375)
(-0.0167804 -2.00086 -6.77873)
(0.404191 -2.85017 -6.92491)
(1.72117 -3.37675 -6.15881)
(1.73023 -2.1156 -6.39868)
(1.10895 -0.835997 -6.95799)
(1.02691 -1.85971 -7.07679)
(2.33434 -2.55159 -6.53437)
(1.89966 -1.03188 -6.98535)
(1.47695 0.0228435 -7.26305)
(0.601829 -0.380871 -7.34637)
(2.14108 -1.9006 -7.31392)
(1.76966 -0.273636 -7.31666)
(1.0338 -0.491616 -7.04652)
(2.07332 -1.6874 -7.21297)
(1.59616 -0.144093 -7.07516)
(0.797358 -0.198329 -6.75919)
(2.04388 -1.49153 -7.33998)
(1.61847 -0.0617617 -7.1433)
(0.637094 -0.270285 -6.8622)
(2.07203 -1.45645 -7.58773)
(1.43105 0.593543 -7.27198)
(0.18391 -0.19589 -6.87919)
(0.999289 -1.0365 -6.92417)
(2.25286 -1.3969 -6.85237)
(1.47405 0.429801 -7.52448)
(0.222503 0.0153263 -7.40183)
(0.539079 -1.01115 -6.98625)
(2.2758 -1.40286 -6.63346)
(1.45368 -0.151405 -7.46987)
(0.38449 -0.632196 -7.3944)
(1.5121 -1.12961 -6.69558)
(2.78914 -1.22112 -6.52579)
(2.27526 -0.357272 -7.22649)
(1.09804 -0.352445 -7.31106)
(1.69048 -0.680273 -6.79077)
(2.09438 -0.0796418 -6.36803)
(2.14897 0.367866 -5.54597)
(2.4369 1.38784 -5.07365)
(1.73131 2.9554 -5.28806)
(0.832096 2.87432 -5.06291)
(0.813418 2.35047 -4.66097)
(-0.35614 2.12123 -4.62444)
(-1.04438 1.64402 -5.16651)
(-0.783438 0.0116654 -5.99265)
(-0.00443117 0.466113 -5.20282)
(0.805661 1.22216 -4.64884)
(2.27665 1.17781 -4.31244)
(2.33888 0.263644 -2.31089)
(3.87405 0.97254 -3.77052)
(4.80102 -0.39298 -4.70623)
(4.46535 -0.802943 -5.68398)
(3.79877 -1.26171 -6.00033)
(4.41662 -1.44999 -4.83665)
(4.01663 -1.51432 -5.35665)
(3.04224 -1.53088 -5.89827)
(3.45934 -1.75996 -4.51081)
(3.04628 -1.61553 -5.30772)
(2.81132 -1.59474 -6.10095)
(3.12647 -1.95186 -4.43357)
(3.05942 -1.94201 -5.38199)
(2.76277 -1.47836 -6.40182)
(2.95135 -2.21358 -5.21739)
(2.35809 -1.74278 -6.25201)
(2.97481 -2.52294 -5.26922)
(2.41297 -1.95282 -6.17786)
(2.92946 -2.77221 -5.45654)
(2.44826 -1.9927 -6.21231)
(2.87393 -2.84768 -5.71675)
(2.36261 -2.57901 -6.30746)
(2.78713 -3.2162 -5.89827)
(3.28869 -3.7621 -5.30074)
(3.52548 -4.27417 -4.25621)
(3.28384 -3.49524 -4.89038)
(3.66533 -3.97744 -3.74416)
(3.39107 -3.24402 -4.49412)
(3.53299 -3.39149 -3.23128)
(3.33581 -2.77371 -4.15273)
(3.58105 -2.9213 -2.8937)
(3.39366 -2.47779 -4.05531)
(3.46787 -2.33439 -2.85271)
(3.64469 -1.87679 -1.62244)
(3.39288 -2.61355 -1.87536)
(3.65131 -3.50238 -1.84979)
(3.56759 -3.87099 -2.73794)
(3.7412 -4.65242 -3.07715)
(3.51896 -4.5884 -3.79234)
(3.5041 -4.47962 -4.59292)
(3.07663 -3.97695 -5.48146)
(2.57562 -3.43212 -6.04431)
(2.73457 -4.22154 -5.73463)
(3.30249 -4.73636 -4.83077)
(3.58797 -5.03711 -3.92704)
(3.35562 -4.87938 -4.36497)
(2.89801 -4.59161 -5.1112)
(1.96691 -4.10792 -5.78568)
(2.08037 -4.40272 -5.26577)
(3.06028 -4.79023 -4.46063)
(3.40097 -5.03385 -3.98797)
(3.49153 -5.10782 -3.49988)
(3.3148 -4.88369 -3.57517)
(2.88749 -4.58002 -3.59206)
(1.99043 -4.14851 -4.053)
(0.653253 -3.58081 -4.84678)
(0.628901 -3.35806 -2.72413)
(1.42804 -3.64522 -1.92026)
(2.04264 -3.87826 -1.13097)
(0.696404 -3.14984 -0.172281)
(-0.425454 -2.81081 -0.117611)
(-0.603351 0.51089 3.97705)
(-0.635905 0.45374 5.57301)
(-0.330569 0.509037 5.51435)
(0.00889106 0.847911 4.51097)
(0.274796 0.988486 2.90147)
(-0.16591 1.05851 1.17958)
(-0.641328 -3.06659 -3.35229)
(-0.853101 -3.81633 -4.17234)
(-0.939075 -4.49819 -4.70063)
(-0.911127 -4.80792 -5.09214)
(-0.95262 -4.7287 -5.05774)
(-0.884145 -4.54705 -4.88021)
(-0.766281 -4.94718 -5.90629)
(-0.675207 -5.03061 -6.10038)
(-0.479571 -4.94379 -6.43517)
(-0.517795 -4.94755 -6.32962)
(-0.575928 -4.86069 -6.26917)
(-0.529813 -4.23475 -5.15713)
(-0.386346 -4.63888 -5.61671)
(-0.363507 -4.77016 -5.7781)
(0.0443601 -4.12548 -4.63072)
(1.00493 -2.1474 -1.7951)
(1.09655 -1.59321 0.271638)
(0.833494 -0.869468 2.09268)
(0.343685 -0.91485 3.13047)
(0.631079 0.0535876 2.7241)
(0.388659 0.214345 2.9962)
(0.5113 0.124977 3.0849)
(0.421402 0.137543 2.55646)
(0.694069 0.158911 2.03195)
(0.633536 0.0742705 1.78814)
(0.515856 0.130349 1.76967)
(1.02104 0.163786 1.70843)
(1.47109 0.239487 1.36234)
(1.23587 0.186386 0.84255)
(0.761449 0.404307 0.791893)
(0.328899 0.300213 0.619936)
(0.157183 0.142892 0.747298)
(0.180177 0.0892827 0.843573)
(0.108592 0.0790292 0.652711)
(-0.0286146 0.109144 0.367202)
(-0.223071 0.262032 0.0865163)
(-0.406298 0.341867 -0.224616)
(-0.438584 0.289253 -0.232692)
(-0.388047 0.331627 -0.158974)
(-0.190508 0.237268 0.171311)
(0.00780445 0.129569 0.401072)
(0.058467 0.05063 0.424836)
(0.0549732 0.038089 0.378352)
(0.0599783 0.0294361 0.364035)
(0.0683119 0.0271061 0.365874)
(0.0578253 0.0316783 0.349033)
(0.0580533 0.0356914 0.338612)
(0.0650601 0.0340372 0.363569)
(0.0571534 0.0382723 0.353065)
(0.0574532 0.0419494 0.354737)
(0.0665312 0.0393959 0.388441)
(0.0595868 0.0500577 0.40008)
(0.0741418 0.0434839 0.42845)
(0.0860728 0.0235049 0.330214)
(-0.0090379 0.0237039 0.0709047)
(-0.149326 0.19433 -0.0271321)
(-0.242318 0.139553 -0.150837)
(-0.155344 0.0104576 -0.0788861)
(-0.147047 -0.230833 0.0646825)
(-0.110304 -0.323857 0.0516438)
(-0.16527 -0.550854 0.185127)
(-0.300273 -0.593558 0.310237)
(-0.376848 -0.248214 0.421705)
(-0.19903 0.0626902 0.403798)
(-0.424716 -0.739905 0.140285)
(-0.903545 -1.43033 -0.331291)
(-1.20094 -1.83119 -0.823843)
(-1.58485 -2.12839 -1.11865)
(-2.28954 -2.78604 -1.35378)
(-2.8951 -2.90683 -1.66898)
(-3.24441 -2.87578 -1.89124)
(-3.76823 -3.01083 -2.63014)
(-4.10896 -2.74288 -3.14621)
(-3.83372 -1.99819 -3.45821)
(-3.80656 -1.79491 -4.16453)
(-3.84243 -1.29913 -4.46287)
(-3.1411 -0.0168022 -4.89401)
(-2.94149 0.283481 -5.07165)
(-1.77032 1.7867 -5.01758)
(-1.36125 1.98968 -5.17658)
(-0.210843 2.96336 -5.36051)
(0.183469 2.8846 -5.58414)
(0.626479 3.21797 -5.95146)
(-0.162255 2.08162 -6.08228)
(-1.18252 2.04653 -5.06791)
(-1.02228 2.48876 -5.96681)
(-1.7263 1.91642 -6.03875)
(-2.23516 2.01944 -5.28871)
(-1.63291 2.30993 -5.63921)
(-1.61495 2.06692 -5.57788)
(-1.47293 2.60197 -5.12758)
(-0.622041 2.78585 -5.26382)
(-0.23759 2.51338 -5.359)
(0.370346 3.01554 -5.13164)
(1.23811 3.20304 -4.77776)
(2.31963 3.0464 -4.48972)
(2.91432 3.01377 -4.49446)
(3.28697 2.22844 -3.50554)
(4.00888 1.22235 -3.37959)
(0.416688 0.166506 -3.22943)
(-2.42881 1.21851 -3.23722)
(-2.82376 2.28177 -4.39715)
(-2.53517 2.41338 -4.49925)
(-1.74496 2.57452 -4.85422)
(-1.43615 2.20885 -5.24846)
(-2.01078 2.377 -6.0496)
(-0.95523 2.59867 -5.73564)
(0.16937 2.59486 -5.41623)
(-0.0398155 2.49968 -6.76593)
(0.560436 2.89404 -6.01463)
(1.41524 2.5173 -5.3946)
(1.35556 1.95058 -5.70124)
(1.20954 2.37027 -5.62959)
(1.73142 2.12593 -5.58227)
(1.61129 1.69605 -5.82468)
(1.35908 1.94069 -5.80695)
(1.56353 1.64514 -5.7678)
(1.24803 1.95528 -5.97154)
(1.65504 1.38259 -5.81188)
(1.28036 1.77786 -5.80539)
(1.89276 1.35554 -5.99241)
(1.60083 1.69037 -5.75673)
(1.97762 1.42278 -5.81725)
(1.76229 1.59512 -5.83619)
(2.19086 1.71181 -5.61235)
(2.46293 1.19226 -5.56387)
(2.08729 1.25348 -5.58518)
(2.55573 1.35667 -5.25623)
(2.91519 0.715726 -5.45031)
(2.59615 0.573403 -5.44976)
(2.81505 0.21796 -5.24817)
(2.84425 -0.00889909 -5.43419)
(2.25067 0.412307 -5.50392)
(2.51781 0.667872 -5.04789)
(3.03299 0.0757018 -4.85941)
(2.60595 -0.810989 -4.87236)
(1.7771 -0.939767 -5.13727)
(0.521742 2.111 -4.48134)
(1.06039 3.52074 -4.12868)
(1.75 3.97294 -3.99249)
(2.41329 2.88298 -4.00182)
(3.17393 2.2668 -4.99672)
(3.20037 1.43504 -5.10109)
(3.11252 0.136856 -5.51717)
(2.6178 -0.660176 -5.88311)
(2.12095 -0.776307 -6.46203)
(2.10023 -1.46477 -6.40627)
(1.76911 -2.2554 -5.78772)
(1.28372 -2.02998 -6.83834)
(2.12167 -1.21347 -6.2159)
(2.09394 -1.63476 -5.28724)
(1.48941 -1.4411 -6.35123)
(2.53484 -0.626423 -5.8154)
(2.45215 -1.24796 -5.16559)
(1.81284 -1.2858 -5.29502)
(1.97535 -0.99825 -5.21947)
(1.58495 -0.669434 -5.00128)
(1.86149 -0.381751 -5.32601)
(1.18817 -0.847631 -5.16325)
(1.93204 -0.283012 -5.2807)
(1.36939 -1.16315 -5.31466)
(1.75978 -1.04213 -5.01602)
(1.90578 -1.33056 -5.66162)
(2.38933 -1.21006 -5.86895)
(2.45627 -1.61706 -5.57512)
(1.83387 -2.092 -5.4464)
(1.54899 -2.04709 -5.54994)
(1.37854 -2.8045 -5.19804)
(0.324026 -3.10621 -5.40712)
(-0.313312 -3.01206 -5.5832)
(-0.742322 -3.3118 -4.53315)
(-1.71382 -3.50028 -4.44687)
(-2.53438 -3.16324 -4.11431)
(-3.37401 -2.88578 -3.61511)
(-3.59838 -2.53647 -2.74552)
(-3.73043 -2.11535 -1.51334)
(-3.96304 -1.8343 -1.3541)
(-3.32667 -0.747651 -0.600008)
(0.0924878 -0.00998173 -0.619218)
(3.3861 -0.96216 -0.989041)
(3.20589 -2.20738 -1.59031)
(1.49219 -3.58911 -3.41217)
(-0.466161 -3.47327 -4.21483)
(-2.51333 -2.80462 -3.48837)
(-3.67549 -1.61274 -1.96315)
(-3.94135 -0.635984 -0.863972)
(-2.74901 0.0971006 0.595746)
(-1.82429 0.435488 0.784866)
(-1.25174 0.593243 0.716848)
(-0.551826 0.549575 0.940548)
(0.0378001 0.417408 0.932139)
(0.110103 0.207831 0.873097)
(0.18509 0.280313 0.795697)
(0.430898 0.393947 0.957706)
(-0.324873 0.602433 0.967953)
(0.447631 0.359885 0.894351)
(1.1222 0.0611296 1.18763)
(1.89897 -0.0544411 1.10149)
(2.34613 0.246312 1.01973)
(1.6806 0.324343 0.855034)
(1.27967 0.308862 0.741706)
(1.00058 0.361166 0.728413)
(0.434662 0.260091 0.489678)
(0.0626388 0.109214 0.175717)
(-0.107271 -0.0506447 -0.110261)
(-0.284529 0.151594 -0.130463)
(-0.29242 0.121502 -0.2456)
(-0.191916 -0.0240308 -0.112715)
(-0.0230719 -0.0583052 -0.0271897)
(0.0213221 0.00358551 0.245765)
(0.13213 -0.0290958 0.368464)
(0.0954033 -0.00712199 0.354908)
(0.115632 0.0345203 0.350834)
(0.0907739 0.0392278 0.33392)
(0.10238 0.0338869 0.321333)
(0.0891474 0.0457742 0.309977)
(0.0890233 0.0562928 0.303166)
(0.0964501 0.046701 0.320478)
(0.0903931 0.0557433 0.314398)
(0.0878188 0.0638535 0.319685)
(0.092519 0.0621972 0.341887)
(0.0792021 0.083447 0.360129)
(0.0815293 0.110952 0.389207)
(0.0235821 0.1661 0.252819)
(-0.191864 0.233558 -0.0897968)
(-0.222896 0.128344 -0.182668)
(-0.0928023 0.00373265 0.0762442)
(-0.0455693 -0.0205226 0.26432)
(-0.105477 0.102175 0.217209)
(-0.195799 0.256624 0.0289627)
(-0.0701649 0.344934 -0.111389)
(0.110213 0.142223 0.0613671)
(-0.0317824 -0.421297 0.177652)
(-0.130411 0.475198 0.119815)
(-0.199882 0.517725 -0.0991689)
(-0.141215 0.797943 0.0380402)
(0.0233666 1.15511 0.104103)
(0.0724479 1.21259 0.0940363)
(0.774712 0.577236 -0.21433)
(-0.532067 -1.22918 -0.82128)
(-1.37172 -2.1067 -0.755365)
(-2.08527 -2.48595 -0.98687)
(-2.55847 -2.49937 -1.09736)
(-3.24607 -2.65314 -1.56762)
(-4.10637 -2.78163 -2.28393)
(-3.91649 -1.82794 -2.52655)
(-3.69751 -1.00849 -3.12228)
(-4.00529 -1.0527 -3.48845)
(-3.23064 0.431042 -3.87378)
(-3.12987 0.519296 -3.96686)
(-1.93821 1.97799 -3.83549)
(-1.65689 2.18179 -3.88788)
(-0.496375 3.12906 -4.26539)
(-0.383523 3.07385 -4.39594)
(0.111464 3.16029 -4.81096)
(-0.841712 2.20265 -4.68639)
(-1.6325 2.35391 -3.93182)
(-1.42582 2.69435 -4.82357)
(-1.73798 2.40774 -3.97188)
(-1.79583 2.08875 -4.95568)
(-2.34477 2.42527 -4.14006)
(-1.75533 2.63498 -4.2955)
(-1.84099 2.47293 -4.22891)
(-1.60882 3.0067 -3.93917)
(-0.685542 2.97907 -4.18457)
(-0.630831 2.80851 -4.15979)
(-0.131565 3.38351 -3.9726)
(0.965383 3.54944 -3.67381)
(2.12716 3.3246 -3.4891)
(3.01213 2.93899 -2.33682)
(3.14684 2.60796 -2.66772)
(3.64553 2.41023 -2.45367)
(3.88566 1.07846 -2.47034)
(-0.214031 0.0504663 -2.40585)
(-2.73199 1.52972 -2.52967)
(-2.00823 2.02511 -2.32249)
(-2.11793 1.8092 -2.72967)
(-2.27374 1.31221 -2.98376)
(-1.61676 0.253971 -3.49575)
(-1.16927 0.806468 -3.02423)
(-1.70333 0.641304 -3.3137)
(-2.03589 0.673189 -4.19355)
(-2.06237 -0.676809 -4.34819)
(0.422046 -1.51787 -3.81616)
(-0.307895 -1.53188 -3.34492)
(-0.452607 -1.34514 -1.88822)
(-0.323745 -1.76037 0.260733)
(-0.308602 -0.327412 1.87648)
(0.168811 -0.891134 3.39921)
(0.367956 -1.01831 4.37144)
(0.511806 -0.671091 5.21156)
(-0.739772 -0.132237 6.86002)
(0.0246687 -0.0924639 7.1248)
(-0.15385 0.0147083 7.42244)
(-0.133679 0.17366 7.89843)
(0.297803 0.416884 6.91902)
(-0.0513687 -0.205521 5.65221)
(-0.418028 -0.194593 6.93408)
(0.322588 0.0130422 5.93437)
(-0.0609927 0.12405 6.1244)
(2.77663 -4.48074 -1.2561)
(2.60698 -4.71122 -1.18222)
(3.40224 -5.05672 -2.97083)
(3.61606 -5.07708 -2.91697)
(3.17399 -4.71933 -1.01297)
(3.49571 -4.31839 -1.04022)
(0.911341 -1.43241 2.84453)
(2.95196 -2.04915 0.207746)
(1.4818 -1.04495 2.3311)
(4.82518 -1.63028 -1.53433)
(4.55122 -1.77781 -2.5746)
(3.6778 -1.84972 -2.79017)
(3.50484 -1.94616 -3.56618)
(5.0493 -2.83929 -2.58869)
(5.30383 -2.83988 -2.31021)
(5.75121 -3.08322 -2.06135)
(5.60636 -2.93457 -2.7149)
(5.60632 -3.20939 -3.03129)
(5.81981 -3.48902 -3.30828)
(5.70364 -3.68116 -3.30308)
(5.45617 -4.25479 -3.48224)
(5.41713 -4.29127 -3.45249)
(5.08388 -4.86904 -3.54349)
(5.07842 -4.89275 -3.52291)
(4.69827 -5.40926 -3.57176)
(4.69707 -5.45808 -3.58764)
(4.39828 -5.76293 -3.59688)
(4.38917 -5.82645 -3.62191)
(4.27515 -5.90384 -3.58309)
(4.28207 -5.93056 -3.59587)
(4.26925 -5.84281 -3.49501)
(4.56081 -5.51526 -3.33368)
(4.68711 -5.43965 -3.31356)
(4.89402 -5.04688 -3.18894)
(5.28801 -4.45864 -2.68355)
(5.33896 -4.50251 -2.49896)
(5.04913 -4.09699 -2.21187)
(4.15485 -3.26997 -0.948141)
(-2.10469 0.683497 1.99499)
(-4.74086 -1.72178 -1.4648)
(-3.41998 -4.75215 -3.8047)
(-1.09552 -5.06794 -4.16493)
(2.53387 -4.8244 -4.15463)
(4.81922 -1.27848 0.938285)
(3.61971 -0.288523 1.22544)
(3.75486 0.277773 1.10903)
(2.94155 0.38526 1.19086)
(2.02713 0.412488 0.973973)
(1.36877 0.400494 0.747199)
(0.941726 0.311845 0.608562)
(0.72993 0.245242 0.579656)
(0.350445 0.0757023 0.393567)
(0.167915 -0.0499736 0.346663)
(-0.0423847 -0.163128 0.129885)
(0.272304 -0.0564625 0.312822)
(0.132849 -0.0966983 0.105497)
(0.336822 0.0478446 0.295021)
(0.182581 -0.00270748 0.263432)
(0.260293 0.0932049 0.335154)
(0.165854 0.0491243 0.308251)
(0.177926 0.0825657 0.293338)
(0.280026 0.139984 0.317952)
(0.148852 0.0676746 0.27441)
(0.20772 0.0961653 0.284382)
(0.293069 0.144398 0.318689)
(0.145225 0.0755623 0.285386)
(0.17945 0.100349 0.305968)
(0.263445 0.148333 0.3378)
(0.121604 0.124088 0.329863)
(0.0827265 0.207096 0.266199)
(0.00154549 0.190563 0.23731)
(0.0295597 0.124344 0.319079)
(0.0767468 0.106244 0.35711)
(0.120243 0.273366 0.378148)
(-0.0580474 0.225994 0.134165)
(-0.0743697 0.337858 -0.104519)
(0.0701614 0.20993 0.360214)
(0.0125746 0.29781 0.32785)
(0.140659 0.503126 0.595041)
(0.116723 0.662582 0.619609)
(-0.0862062 0.983286 0.190807)
(0.0436595 0.984977 0.046196)
(0.180764 1.20761 0.763916)
(0.321946 2.13459 0.570177)
(-1.07625 -0.712801 -0.462649)
(1.66669 1.96311 0.786354)
(-1.49361 -1.75841 -0.325623)
(-2.47246 -1.91581 -0.369537)
(-2.89066 -0.562917 -1.23638)
(-4.05627 -1.281 -1.79718)
(-3.65125 0.124488 -2.20865)
(-3.50823 1.27738 -2.43352)
(-3.21068 1.49757 -2.82126)
(-3.11035 3.05637 -2.86085)
(-2.38228 2.75253 -2.78084)
(-2.54103 3.53732 -2.82482)
(-1.59332 3.21685 -3.06274)
(-1.7923 3.23695 -2.6889)
(-1.58149 2.95159 -3.23365)
(-2.23742 3.16499 -2.90014)
(-2.58637 3.52733 -2.73777)
(-2.15974 2.99654 -3.34118)
(-2.42191 3.48116 -3.02059)
(-2.6265 3.80327 -2.81147)
(-2.24612 3.38064 -3.0842)
(-1.94151 3.91275 -2.96893)
(-1.73135 4.00305 -2.78288)
(-1.23675 3.56038 -3.06381)
(-0.857909 4.0303 -3.04781)
(0.0259355 4.29736 -2.8984)
(0.461157 4.20402 -2.66161)
(1.08249 3.78099 -1.99236)
(1.17884 0.815633 -0.886834)
(3.32348 0.317363 -1.18757)
(-0.773193 -0.469572 -0.682147)
(-1.05868 0.934465 -1.319)
(-0.0387138 3.07752 -1.91494)
(-0.185867 3.60754 -2.42361)
(-2.047 2.74759 -3.47272)
(-1.25392 3.04015 -3.79359)
(-1.59804 2.66167 -4.37539)
(-1.20305 2.27873 -4.35229)
(-1.7361 2.33018 -5.1348)
(-1.15588 2.76152 -4.74596)
(0.22458 2.95637 -4.08378)
(0.978842 2.76749 -4.68514)
(0.556712 2.63163 -5.52279)
(0.749035 3.12473 -4.81205)
(1.82236 2.82291 -4.06011)
(1.81212 2.30471 -4.27096)
(1.52571 2.60207 -4.3259)
(2.11493 2.47519 -4.32988)
(1.94869 2.00115 -4.56395)
(1.68742 2.19986 -4.65313)
(1.84662 2.00237 -4.5125)
(1.53578 2.22845 -4.64335)
(1.85221 1.7051 -4.327)
(1.58864 1.98068 -4.33408)
(2.15397 1.6703 -4.65472)
(1.94118 1.9867 -4.52388)
(2.21647 1.77298 -4.68245)
(2.04849 1.96998 -4.60161)
(2.51459 2.14206 -4.40303)
(2.67237 1.53977 -4.31873)
(2.39886 1.72261 -4.27335)
(2.86838 1.82413 -4.09188)
(3.08687 1.00203 -4.36679)
(2.84389 1.13536 -4.32321)
(3.09316 0.793807 -4.16068)
(2.87566 0.393807 -4.31211)
(2.51591 0.821444 -4.27879)
(2.81497 0.878273 -4.10623)
(3.30774 0.520593 -3.79526)
(2.98135 -0.528502 -3.80245)
(1.24716 -0.398336 -3.11233)
(-0.307547 0.497878 -3.7124)
(0.730433 -0.0206707 -4.09068)
(0.370184 0.141626 -4.34225)
(-0.440012 0.609675 -5.06285)
(-0.677751 1.30457 -4.61264)
(-0.810215 1.15236 -4.79068)
(-0.628101 0.455126 -5.02733)
(-0.356152 -0.142632 -4.71871)
(-0.621993 0.697109 -4.70659)
(-0.417932 2.01754 -4.32299)
(-0.188118 1.99235 -3.59158)
(1.29768 2.26744 -1.64747)
(2.22929 1.23002 -1.69527)
(4.22115 1.20592 -1.61534)
(5.29817 1.32568 -1.49589)
(5.2152 -1.0317 -1.64003)
(5.95389 -1.77229 -2.59513)
(6.10581 -1.79154 -2.95879)
(6.01469 -1.67988 -2.93382)
(5.87513 -1.73106 -2.86981)
(5.96111 -1.79243 -2.80232)
(6.02206 -1.96136 -2.57379)
(5.80432 -2.23742 -2.58295)
(5.40972 -2.55716 -2.63379)
(5.45674 -2.72155 -2.57922)
(5.30676 -3.21845 -2.45452)
(5.31532 -3.29279 -2.47792)
(5.0818 -3.78919 -2.41266)
(4.71244 -3.89351 -2.5344)
(4.65384 -4.00338 -2.51461)
(4.35019 -4.38223 -2.49311)
(4.3801 -4.39554 -2.51142)
(4.05831 -4.56731 -2.52561)
(4.00137 -4.48668 -2.50501)
(3.6969 -4.54592 -2.60696)
(3.65965 -4.43721 -2.63813)
(3.59005 -4.85069 -2.79933)
(3.53735 -4.74637 -2.89222)
(3.52206 -4.80571 -2.94449)
(3.50856 -4.6337 -2.96931)
(3.52554 -4.6103 -3.01501)
(3.89619 -4.87481 -3.11761)
(4.25772 -4.92634 -3.14467)
(4.16714 -4.16306 -2.66443)
(3.82509 -3.90358 -2.57268)
(3.80058 -3.26709 -2.08556)
(3.05902 -1.06691 -1.1578)
(-0.194899 1.17023 1.34247)
(-2.63156 1.72242 1.48784)
(-2.61517 2.3033 0.993109)
(-2.82422 -3.59401 -2.92505)
(-1.3105 -4.95015 -4.01111)
(2.55433 -2.61134 -2.39946)
(2.78386 0.0520988 0.315156)
(3.60673 0.0683096 1.24656)
(3.19363 -0.213266 1.37762)
(3.17629 0.212289 1.19014)
(3.59818 0.294046 1.12076)
(2.68883 0.308648 1.00993)
(1.83815 0.307023 0.84024)
(1.99703 0.361405 1.21001)
(1.94157 0.3912 1.43404)
(2.00985 0.50509 1.72947)
(2.08463 0.600158 1.17902)
(1.50963 0.559667 0.840686)
(1.12254 0.409358 0.665207)
(0.820809 0.268511 0.536669)
(0.607798 0.144299 0.446744)
(0.434777 0.0684872 0.444706)
(0.632348 0.205148 0.449209)
(0.571616 0.21159 0.410965)
(0.443884 0.126119 0.402168)
(0.589388 0.239395 0.408463)
(0.503635 0.234014 0.389415)
(0.387957 0.155786 0.376413)
(0.522222 0.251443 0.382352)
(0.445877 0.245515 0.355727)
(0.335045 0.160124 0.337511)
(0.408469 0.206981 0.389569)
(0.548565 0.286299 0.392528)
(0.462602 0.234117 0.371122)
(0.347211 0.164903 0.350251)
(0.485281 0.241828 0.350238)
(0.399026 0.210955 0.333343)
(0.492133 0.246821 0.372598)
(0.350336 0.178223 0.357771)
(0.420245 0.198594 0.405294)
(0.567456 0.260826 0.405119)
(0.421932 0.274806 0.359363)
(0.300956 0.209516 0.337131)
(0.28888 0.203535 0.340341)
(0.332995 0.197911 0.386804)
(0.404206 0.212304 0.449696)
(0.466006 0.301284 0.482103)
(0.465089 0.316353 0.475784)
(0.542935 0.370436 0.572547)
(0.642789 0.521026 0.724337)
(0.655665 0.703023 0.799204)
(0.602676 1.05284 0.829284)
(0.926668 1.09197 0.788435)
(1.59395 1.24788 1.00179)
(1.16516 1.16527 1.19588)
(1.0461 1.28426 1.19721)
(1.72184 1.80948 1.08101)
(2.27309 2.14899 1.15578)
(2.76591 2.97044 0.599515)
(-0.268302 -0.248247 0.34624)
(2.15778 2.85014 0.170895)
(-0.0360725 4.51999 -1.52384)
(-2.50666 3.7482 -2.63583)
(-3.20512 2.00369 -2.57581)
(-2.79954 5.01524 -3.01393)
(-2.96515 5.12299 -3.10039)
(-3.44504 3.97627 -3.04926)
(-3.70697 4.8225 -3.17476)
(-3.78567 4.89627 -3.19701)
(-3.56375 4.298 -3.08648)
(-4.02707 4.35518 -3.00554)
(-3.96124 4.3337 -2.9829)
(-3.07311 3.80144 -2.80063)
(-3.6891 3.8769 -2.68968)
(-3.59376 3.90733 -2.65287)
(-2.64734 3.50468 -2.59892)
(-3.17286 4.01266 -2.67838)
(-3.44222 4.59909 -2.66679)
(-3.48999 4.6238 -2.7201)
(-2.83447 4.05825 -2.78336)
(-2.96495 4.54588 -2.70938)
(-2.95165 4.56237 -2.79039)
(-2.85831 5.31468 -2.8408)
(-2.50217 4.53894 -2.88062)
(-2.49504 5.12566 -2.93594)
(-2.64258 5.53677 -2.86241)
(-2.59703 5.53496 -2.90432)
(-1.79575 4.58411 -2.87012)
(-1.80859 5.08424 -2.85329)
(-1.62909 5.04117 -2.63133)
(-1.11823 4.58976 -1.87515)
(-0.403359 1.56443 -0.679546)
(0.441741 2.48535 -1.09738)
(1.57487 3.94008 -1.82579)
(1.9238 4.19868 -2.24981)
(2.12041 4.27541 -2.49317)
(0.0875631 3.7443 -2.82711)
(-0.312395 3.54305 -3.0543)
(-0.574355 2.68273 -3.14707)
(1.27153 3.4855 -2.70649)
(2.04462 4.12362 -2.70872)
(3.42063 4.62475 -2.55012)
(3.69559 4.66866 -2.52017)
(4.12211 4.96473 -2.79624)
(3.26096 4.572 -2.79207)
(2.8822 4.45573 -3.0204)
(1.09168 3.85789 -2.90577)
(1.52287 3.43969 -3.59128)
(2.90978 3.96923 -3.08117)
(2.64816 3.62822 -3.09023)
(2.45906 3.23273 -3.19655)
(3.12825 3.72053 -3.04873)
(3.62244 4.30752 -3.02049)
(3.94291 4.57404 -2.90396)
(4.16908 4.71343 -2.95825)
(4.19169 4.72831 -2.9373)
(4.3455 4.79299 -2.99445)
(3.87011 4.35695 -3.01124)
(3.47263 3.81389 -2.99476)
(2.77763 3.30546 -3.20386)
(2.52348 2.7859 -3.43054)
(2.84335 3.1033 -2.96851)
(2.51089 2.68536 -3.21358)
(3.03662 3.11993 -2.85567)
(3.71274 3.88877 -2.94728)
(4.15643 4.42535 -2.95612)
(4.24815 4.47536 -2.97317)
(4.23227 4.47544 -2.95742)
(4.32763 4.44631 -2.9721)
(3.78577 3.95371 -2.96265)
(2.95874 3.18651 -2.85892)
(2.53122 2.66314 -2.90062)
(1.53964 1.65278 -4.80161)
(2.37197 2.55755 -4.46349)
(1.53075 1.80187 -5.00967)
(1.3808 1.6939 -5.14131)
(1.51056 1.67476 -5.87401)
(1.40312 1.85757 -5.81488)
(1.16585 1.6979 -5.93957)
(0.99568 1.64921 -7.19426)
(1.34099 1.17802 -7.19322)
(1.86643 2.18703 -7.09378)
(2.4506 2.71926 -6.68351)
(3.15207 3.39905 -6.23542)
(3.78552 3.92833 -5.54198)
(4.21114 4.35713 -4.73121)
(4.71291 4.72123 -3.97711)
(4.99023 4.83105 -3.50245)
(4.9139 4.7121 -2.86375)
(2.68199 3.27596 0.900995)
(-0.574292 0.114758 4.41526)
(-0.769916 0.463784 4.35399)
(0.984546 0.0202193 3.1444)
(5.64024 -1.67895 -2.00729)
(5.55024 -1.48618 -3.16678)
(4.75251 -1.5498 -2.49714)
(4.88996 -1.64684 -3.65689)
(4.36324 -1.78952 -4.00882)
(5.35977 -2.05283 -3.14715)
(5.69499 -2.12236 -2.74051)
(6.28237 -2.22998 -2.51051)
(6.1137 -1.92884 -2.85534)
(6.30678 -2.12974 -3.13149)
(6.51994 -2.37078 -3.37723)
(6.40755 -2.55717 -3.37839)
(6.26109 -3.09344 -3.46238)
(6.37231 -3.13412 -3.7474)
(6.41922 -3.56414 -3.55448)
(5.90566 -3.863 -3.13183)
(5.81713 -4.02368 -3.14068)
(5.15924 -4.50957 -3.20584)
(5.16781 -4.89427 -3.36396)
(4.89477 -5.17599 -3.21582)
(4.44914 -5.55094 -3.23505)
(4.02715 -5.57223 -3.35283)
(3.48415 -5.2634 -3.83498)
(3.37614 -5.28039 -4.06022)
(3.34548 -5.34358 -4.05746)
(3.37746 -5.22355 -4.1061)
(3.46241 -5.2217 -4.08921)
(3.55728 -5.18818 -4.36474)
(3.65501 -5.23732 -4.42687)
(3.74736 -4.96429 -3.84021)
(3.78763 -4.89279 -3.56137)
(3.4029 -4.80369 -3.05857)
(0.762366 -4.37646 -1.88438)
(-3.29483 -5.15113 -2.53851)
(-3.09608 -5.35306 -4.39403)
(-0.654736 -5.33906 -4.86179)
(0.0263319 -5.27945 -4.9327)
(1.10654 -4.99407 -4.9189)
(4.36494 0.0788207 1.45817)
(3.33683 0.813708 1.73736)
(3.10744 0.800481 1.53339)
(2.28031 0.845394 1.32299)
(1.87448 0.8063 1.0951)
(1.66192 0.7145 1.01353)
(1.30443 0.577955 0.808911)
(0.985309 0.469131 0.65787)
(0.744275 0.324691 0.507546)
(0.894928 0.469235 0.59838)
(0.675339 0.326541 0.46978)
(0.814025 0.447771 0.563868)
(0.605852 0.332062 0.426384)
(0.722536 0.39981 0.499021)
(0.55345 0.278611 0.404778)
(0.638402 0.369711 0.5885)
(0.755463 0.427451 0.703638)
(0.899933 0.472737 0.593466)
(0.637343 0.340937 0.456473)
(0.772468 0.406297 0.5188)
(0.57503 0.285723 0.393498)
(0.683469 0.333585 0.454993)
(0.78528 0.354207 0.521419)
(0.581555 0.25156 0.422198)
(0.695544 0.326656 0.615742)
(0.804076 0.35939 0.712501)
(0.957838 0.385038 0.603379)
(0.650578 0.303946 0.449499)
(0.704588 0.326995 0.475778)
(0.470536 0.260451 0.360581)
(0.53786 0.262472 0.40073)
(0.617941 0.283004 0.457202)
(0.686516 0.37497 0.491672)
(0.719193 0.402912 0.49376)
(0.793917 0.451521 0.557721)
(0.934182 0.604603 0.680537)
(0.970692 0.846319 0.739362)
(1.43606 0.891738 0.909324)
(1.65776 1.15959 1.00631)
(2.41156 1.45984 1.26686)
(2.60523 1.61413 1.34198)