/*--------------------------------*- C++ -*----------------------------------*\
  =========                 |
  \\      /  F ield         | OpenFOAM: The Open Source CFD Toolbox
   \\    /   O peration     | Website:  https://openfoam.org
    \\  /    A nd           | Version:  7
     \\/     M anipulation  |
\*---------------------------------------------------------------------------*/
FoamFile
{
    version     2.0;
    format      ascii;
    class       volScalarField;
    location    "18.9";
    object      alpha.water;
}
// * * * * * * * * * * * * * * * * * * * * * * * * * * * * * * * * * * * * * //

dimensions      [0 0 0 0 0 0 0];

internalField   nonuniform List<scalar> 
15142
(
9.09329e-06
7.26099e-07
2.30917e-05
1.54431e-06
1.5695e-09
2.57246e-08
2.71147e-07
3.34663e-06
6.29949e-05
0.000247027
0.000350389
0.000154118
3.6431e-05
3.06566e-06
7.25933e-08
1.20794e-09
9.23645e-12
1.23432e-15
5.21708e-15
4.67029e-15
9.80994e-16
5.11049e-14
9.30393e-09
9.95588e-08
4.30169e-06
4.36997e-05
0.000159763
0.000256679
0.000352805
0.0005262
0.000523142
0.000596038
0.000605643
0.000605643
0.000569791
0.000890898
0.00145775
0.00231252
0.00322669
0.0043966
0.00832821
0.0129429
0.018823
0.0407115
0.0682653
0.105017
0.200786
0.32732
0.466814
0.602266
0.719108
0.733779
0.67631
0.507512
0.268998
0.180995
0.352832
0.250007
0.210732
0.318862
0.340372
0.355808
0.297212
0.310128
0.307415
0.159891
0.0822537
0.0425698
0.0294726
0.0209016
0.0104233
0.00503423
0.0060307
0.0119247
0.0193368
0.0357813
0.0676423
0.108519
0.20409
0.233144
0.365867
0.543859
0.614276
0.758347
0.735939
0.775773
0.863875
0.869439
0.868008
0.86818
0.867703
0.866471
0.864913
0.863317
0.863086
0.849367
0.72188
0.688213
0.612987
0.463222
0.413851
0.275749
0.132857
0.079395
0.0624184
0.0902487
0.0472269
0.0234507
0.0128524
0.00806878
0.0198618
0.0387493
0.0782512
0.127294
0.171829
0.25743
0.335381
0.289238
0.152778
0.112215
0.155669
0.200225
0.210495
0.190878
0.200666
0.171525
0.265317
0.27205
0.266356
0.26903
0.22988
0.156152
0.179086
0.378551
0.44009
0.355302
0.282228
0.421323
0.436446
0.349987
0.267057
0.183493
0.113417
0.0792819
0.0463442
0.0203266
0.00992836
0.00549901
0.00452421
0.00348435
0.00215719
0.00175731
0.00276164
0.00569893
0.011521
0.00795218
0.00405591
0.00245171
0.00177216
0.00084048
0.000431064
0.00012281
4.56652e-06
5.83197e-05
3.80651e-05
0.00107354
0.0011547
0.00293294
0.00580202
0.0196908
0.0287161
0.0131066
0.00815426
0.00435719
0.001944
0.000962738
0.00154273
0.000832724
0.000155142
0.00102014
0.00213207
0.00463811
0.0160301
0.0172679
0.0106909
0.0364231
0.0729144
0.0804279
0.0565947
0.130887
0.221301
0.18023
0.0885434
0.13684
0.237479
0.184119
0.0985895
0.153874
0.124345
0.070504
0.116994
0.108329
0.0572917
0.106645
0.105104
0.0508584
0.0983207
0.11621
0.0556302
0.0315106
0.0759358
0.099958
0.0485106
0.032196
0.0789112
0.0919767
0.0605488
0.0456669
0.0941613
0.114801
0.104091
0.0735385
0.0386177
0.0104907
0.0159618
0.0216419
0.00904982
0.00893286
0.00883082
0.00579401
0.00364042
0.00324564
0.00287623
0.000762506
0.00281637
0.0123279
0.0228759
0.0337323
0.0123712
0.0171628
0.0250965
0.00775336
0.0110334
0.0189214
0.00685276
0.0134142
0.0266637
0.0108569
0.027136
0.011832
0.0311046
0.0151522
0.0415382
0.0217224
0.0598409
0.0367704
0.0185794
0.013304
0.0108746
0.00914818
0.00749958
0.00547406
0.00556711
0.00433232
0.00575028
0.00390957
0.00326331
0.00383365
0.00391323
0.00701026
0.00925802
0.0169487
0.0231009
0.0282514
0.0526473
0.0333708
0.0284419
0.0216562
0.0240894
0.0238925
0.0227703
0.0103322
0.014156
0.0142353
0.00968526
0.00839465
0.00587847
0.00400382
0.00290765
0.00116234
0.00170029
0.00172668
0.00121204
0.000641313
3.23821e-05
1.92229e-05
9.92282e-05
1.90313e-05
3.33281e-05
0.000222067
0.00316016
0.00632598
0.0122222
0.0207322
0.02159
0.0176682
0.0624242
0.11356
0.154544
0.0910869
0.0450232
0.00729022
0.0117032
0.0169769
0.00450134
0.00104391
0.000464343
0.000147979
4.24873e-05
9.32326e-08
6.86195e-10
2.76376e-09
4.90991e-09
7.03097e-10
7.84084e-11
3.54466e-08
8.53093e-07
2.29317e-05
0.000233891
6.72714e-05
3.61826e-06
2.89927e-06
1.96083e-07
6.00805e-07
4.59816e-06
4.12924e-05
0.000216276
0.000341319
0.000359962
0.000255011
6.49517e-05
3.37478e-06
3.03231e-08
4.25622e-10
4.14754e-12
9.37146e-14
4.72415e-13
1.28641e-11
8.2899e-11
1.24694e-12
1.00925e-08
8.32252e-08
4.21117e-06
6.50037e-05
0.000159448
5.56415e-05
4.27073e-05
7.10331e-05
0.000206967
0.000410698
0.000605643
0.00044314
0.00016793
0.000248399
0.00030275
0.000453445
0.000810385
0.00131166
0.00287612
0.0051955
0.00776145
0.0179789
0.0340093
0.0587314
0.125917
0.238008
0.404119
0.582725
0.74812
0.74812
0.622552
0.387609
0.181283
0.21656
0.380468
0.214055
0.199902
0.363826
0.363832
0.363827
0.363832
0.363826
0.363831
0.230701
0.0948369
0.0366184
0.0180811
0.0104448
0.00425692
0.00189807
0.009489
0.0142859
0.0234491
0.0577
0.0975128
0.0750536
0.197024
0.348524
0.351893
0.612746
0.728535
0.767144
0.777008
0.852778
0.878098
0.878098
0.878098
0.878099
0.878098
0.878099
0.878098
0.878098
0.878098
0.878098
0.785994
0.740654
0.722079
0.546173
0.45314
0.30139
0.157953
0.0654808
0.0548132
0.0924259
0.051875
0.0226628
0.00905068
0.00698675
0.0233774
0.05297
0.119604
0.175765
0.256194
0.401553
0.42232
0.324215
0.124043
0.0946413
0.091716
0.0917167
0.133168
0.0863974
0.0862488
0.0943541
0.144515
0.236127
0.358547
0.362643
0.363488
0.310991
0.297882
0.432176
0.429385
0.2625
0.381917
0.447675
0.447675
0.447675
0.407046
0.306351
0.11195
0.0554364
0.0252203
0.0103654
0.00468018
0.00250954
0.00231322
0.00149081
0.00103756
0.00126574
0.00133604
0.00225138
0.00496905
0.00301961
0.00140476
0.000777025
0.000522642
0.000776257
0.000848205
0.000358674
0.000100295
3.2309e-06
2.93953e-06
0.000174655
0.000584028
0.000790471
0.000419559
0.000273402
0.00021136
0.000140575
0.000124576
7.24979e-05
9.60098e-05
0.000187274
0.000309756
0.000357415
0.000357494
0.000145716
0.000100695
8.10239e-05
2.22155e-05
1.17628e-06
7.24666e-09
8.97555e-11
4.78751e-12
2.00746e-12
9.74596e-12
2.40205e-10
9.0478e-10
5.07453e-12
6.70794e-09
5.65138e-08
3.06642e-06
4.25761e-05
4.79977e-05
2.12294e-05
1.92414e-05
3.89738e-05
2.62875e-05
5.80429e-05
5.77027e-05
0.000116054
0.000317434
0.000115547
7.89842e-05
0.000123497
0.000182239
0.000137587
0.000137587
0.000482921
0.00129323
0.002667
0.00424146
0.00980866
0.0200508
0.0398394
0.0946608
0.163555
0.310942
0.4532
0.74812
0.74812
0.498977
0.323834
0.236665
0.32404
0.380504
0.211098
0.154851
0.197388
0.330843
0.363827
0.363832
0.348578
0.351542
0.333711
0.200664
0.0747695
0.0264855
0.00978972
0.0101171
0.00724754
0.00312923
0.0021227
0.0044103
0.00452061
0.00746742
0.00431521
0.00249839
0.0020119
0.00395851
0.00254924
0.00319618
0.00263403
0.00129066
0.000580707
0.000224662
1.22962e-05
2.41625e-07
4.89712e-09
9.92016e-11
8.84732e-15
6.2829e-15
4.57963e-14
2.4855e-12
3.67561e-06
2.60643e-05
1.72243e-06
0.000138911
0.000182115
0.00177574
0.00174722
0.00559705
0.00665918
0.00200541
0.00215923
2.61058e-05
0.00075533
6.15765e-05
0.00307135
0.00379369
0.00361873
0.00458879
0.010412
0.0163152
0.0471672
0.122562
0.253424
0.291802
0.294072
0.239508
0.240331
0.19076
0.159325
0.138016
0.114656
0.115194
0.0982593
0.122318
0.10496
0.0768127
0.0739368
0.0745078
0.0782568
0.0198604
0.0172377
0.00684965
0.00168484
3.08521e-05
0.000769934
0.0194831
0.0637837
0.00751499
2.72094e-05
2.72228e-05
3.21321e-05
4.20404e-05
5.06373e-05
5.97768e-05
8.60557e-05
9.60671e-05
8.49335e-05
5.42997e-05
8.69005e-05
1.26477e-05
2.92861e-05
2.00304e-06
3.63216e-06
2.19216e-07
1.14475e-09
5.85159e-11
8.68817e-11
1.97716e-11
5.61943e-10
8.93615e-10
6.60393e-10
2.54775e-09
2.5216e-07
8.3375e-07
1.4476e-05
2.35776e-05
1.51348e-05
6.5916e-06
2.41131e-05
5.31406e-05
5.35131e-05
5.92913e-05
4.3955e-05
2.36188e-05
9.53535e-05
0.000162793
0.000162524
0.000149612
0.000276019
0.000570285
0.000258619
0.00241331
0.00767112
0.00727932
0.0266734
0.100749
0.147545
0.306353
0.481713
0.680081
0.56325
0.398096
0.224801
0.323377
0.303654
0.199487
0.196333
0.198246
0.171391
0.328162
0.224678
0.159764
0.200272
0.119558
0.0713081
0.0272083
0.00591697
0.00159863
0.00275965
0.00360358
0.00129537
0.00237191
0.00768387
0.0124574
0.0475971
0.0975118
0.0669483
0.0812695
0.145107
0.348113
0.276093
0.292438
0.527634
0.71796
0.682499
0.705545
0.850584
0.878098
0.878098
0.878099
0.878098
0.878099
0.878098
0.878099
0.878098
0.878098
0.839993
0.740829
0.642085
0.617852
0.494171
0.356805
0.248261
0.19518
0.0774002
0.0548047
0.091912
0.0362688
0.0167071
0.00949453
0.00847508
0.00570061
0.00584801
0.00570061
0.00880079
0.00492647
0.00737697
0.00903091
0.00487126
0.0136256
0.0142225
0.00995105
0.00469531
0.00476063
0.00864003
0.0127026
0.0579007
0.173065
0.186778
0.102597
0.101191
0.0720874
0.0705231
0.0872354
0.0745186
0.0407312
0.0405701
0.0489326
0.0647592
0.0595574
0.0542859
0.0541135
0.05518
0.056855
0.0773201
0.0811011
0.236385
0.33616
0.373527
0.37104
0.360599
0.270851
0.125632
0.0188632
0.0129521
0.00287209
0.000435604
0.000109422
9.66356e-05
0.00024634
0.00391081
0.0156323
0.000870025
8.3569e-05
8.40027e-05
0.000191904
0.000211487
6.17725e-05
0.000111077
0.000129997
2.92823e-05
5.60075e-06
1.44554e-06
2.21472e-05
2.05301e-05
2.02723e-05
1.32999e-05
1.07722e-05
1.31057e-05
5.29824e-06
1.79166e-06
2.37195e-06
9.41861e-07
2.54962e-07
3.41656e-07
1.31814e-07
6.49726e-09
1.40445e-08
1.23498e-09
7.18055e-10
1.14118e-09
4.92382e-10
2.02108e-09
2.20054e-09
2.02732e-09
1.33026e-09
8.09547e-08
2.53003e-07
2.69712e-06
4.89328e-06
1.05746e-05
8.87186e-06
3.35254e-06
1.02187e-05
4.82786e-05
2.28765e-05
1.09611e-05
4.22736e-05
6.49375e-05
3.31891e-05
2.16281e-05
8.77261e-05
0.000136184
8.08333e-05
0.00011224
6.86631e-05
0.00106027
0.00017725
0.000613631
0.0113919
0.0375537
0.0846331
0.144889
0.29006
0.543647
0.653264
0.65325
0.618164
0.553932
0.332771
0.26225
0.286097
0.12237
0.210363
0.332533
0.320384
0.133396
0.27498
0.25543
0.344804
0.201923
0.323814
0.336606
0.303734
0.183055
0.109646
0.0285916
0.00485453
0.0010391
0.000916606
0.00304779
0.00915451
0.0227612
0.0257715
0.0938807
0.0669704
0.10276
0.0579969
0.079176
0.0775775
0.257569
0.151561
0.279237
0.201979
0.401885
0.469982
0.586423
0.643329
0.709554
0.568163
0.484435
0.696365
0.62865
0.75188
0.6807
0.735997
0.805401
0.87342
0.785461
0.878099
0.818573
0.766068
0.703665
0.765617
0.767339
0.710608
0.78055
0.737814
0.852707
0.83318
0.718577
0.850745
0.801042
0.683984
0.691666
0.807474
0.686287
0.682168
0.462394
0.274504
0.146141
0.0841855
0.0568763
0.041932
0.0193432
0.00717988
0.000592537
4.78741e-23
1.14949e-23
1.06415e-21
0.00295764
0.00891683
0.00461779
0.00695658
0.00643667
0.0140026
0.0290709
0.075361
0.17072
0.31293
0.290173
0.293762
0.196884
0.0908642
0.0278513
0.073577
0.0775317
0.101332
0.0784361
0.0783673
0.115639
0.147934
0.300914
0.426067
0.49565
0.53341
0.53341
0.521119
0.297945
0.107389
0.0891142
0.026731
0.00470484
0.016054
0.128851
0.418572
0.183418
0.0462424
6.69267e-06
2.44995e-06
6.72875e-06
7.02269e-06
7.4235e-06
7.58387e-06
5.5429e-06
3.42904e-06
2.06416e-06
5.0388e-07
3.0627e-07
6.22162e-08
3.42538e-08
4.65172e-09
9.06236e-10
2.63211e-09
4.58015e-10
1.40922e-09
9.28154e-10
2.13957e-09
2.49848e-09
2.01697e-09
2.37564e-08
5.86432e-08
1.15645e-08
1.61792e-07
3.63578e-07
9.46508e-07
3.28683e-06
6.32297e-06
8.75114e-06
3.18699e-06
7.41956e-06
3.60832e-05
2.88392e-05
1.04943e-05
2.44505e-05
1.42149e-05
2.38781e-05
1.21107e-05
3.26611e-05
5.16775e-05
1.5247e-05
1.69421e-05
2.32103e-05
2.59188e-05
2.55036e-05
5.09611e-05
0.00703298
0.0579784
0.0323845
0.0648125
0.16007
0.176999
0.37633
0.640835
0.636707
0.637083
0.472276
0.440108
0.402127
0.340435
0.175404
0.100481
0.273817
0.348855
0.336131
0.372941
0.372453
0.275086
0.344309
0.142915
0.0868141
0.170992
0.263351
0.110398
0.133559
0.0278259
0.00592009
0.00147179
0.00211631
0.00587005
0.0171645
0.0434236
0.081935
0.0324514
0.0119065
0.00459634
0.00281083
0.0131711
0.0352146
0.0663889
0.087829
0.202429
0.154827
0.054581
0.0274689
0.00504313
0.00725526
0.0197922
0.0537245
0.121553
0.205576
0.128143
0.0619225
0.0247399
0.0334597
0.069433
0.156402
0.137486
0.15752
0.149423
0.156289
0.0730766
0.101714
0.101555
0.0481365
0.088996
0.080985
0.0437853
0.0477887
0.0245391
0.00988566
0.00581753
0.00662889
0.00900931
0.0116581
0.00925261
0.0079401
0.00311639
6.01974e-12
9.21098e-11
2.6296e-12
2.6404e-13
2.83814e-13
4.33823e-09
5.70741e-10
0.00309683
4.56883e-08
2.10707e-07
7.72513e-08
2.62195e-07
4.73676e-07
6.39673e-07
0.00932185
0.0101136
0.0343982
0.090582
0.214524
0.626793
0.648244
0.641214
0.589971
0.375579
0.397124
0.557471
0.396642
0.350197
0.211546
0.0970112
0.047987
0.0183114
0.00813078
6.10044e-08
1.29147e-07
2.94049e-08
5.33934e-09
2.41939e-09
2.38976e-09
1.73883e-09
1.4182e-09
1.37265e-09
1.46488e-09
2.07626e-09
2.26211e-09
4.03049e-09
8.8003e-09
1.03791e-08
1.40921e-07
2.77874e-07
1.20307e-06
1.65969e-06
3.95858e-06
6.56821e-06
2.60851e-06
4.77925e-06
2.12304e-05
2.50177e-05
9.35793e-06
6.84127e-06
7.12102e-06
5.54148e-06
2.93105e-06
6.55181e-06
1.53193e-05
1.99193e-05
0.00049372
0.00166776
0.01248
0.035262
0.0606688
0.16153
0.382042
0.572321
0.359322
0.348391
0.109239
0.209699
0.089092
0.0681448
0.066904
0.133438
0.0733006
0.201716
0.116012
0.0985623
0.205615
0.369876
0.268858
0.0883763
0.0196972
0.0100384
0.0111766
0.0315506
0.0863008
0.16567
0.144617
0.341412
0.277911
0.458163
0.378892
0.55161
0.41887
0.556638
0.685007
0.73595
0.577234
0.57275
0.410024
0.577172
0.597629
0.691859
0.777311
0.777557
0.486214
0.419897
0.547011
0.785072
0.785072
0.725834
0.632033
0.53214
0.785072
0.757204
0.689532
0.580126
0.66301
0.666431
0.715812
0.722934
0.761743
0.785072
0.785072
0.646471
0.408797
0.549014
0.705358
0.841998
0.713076
0.534118
0.414009
0.269961
0.139669
0.083718
0.0589674
0.0485581
0.0437266
0.0250337
0.0137848
0.00628912
1.51406e-21
6.32221e-21
7.31928e-23
2.05808e-30
1.8598e-30
2.28276e-28
4.58824e-13
0.00279276
0.0165443
0.0458969
0.0860592
0.162891
0.0638929
0.060229
0.103565
0.129688
0.235881
0.288989
0.377995
0.291477
0.241863
0.100679
0.0286353
0.0444714
0.201637
0.561938
0.364854
0.179093
0.00194779
2.01548e-07
1.42274e-07
2.24178e-07
3.88296e-07
1.58195e-07
1.01144e-07
1.01973e-07
4.90715e-08
2.68179e-08
2.80608e-08
1.25719e-08
2.96785e-09
2.32114e-09
2.34372e-09
1.88413e-09
1.3493e-09
1.7165e-09
2.91869e-10
3.29782e-09
4.3001e-08
9.68873e-08
3.28221e-07
6.2234e-07
2.06904e-06
3.19754e-06
1.85316e-06
1.642e-06
2.75729e-06
1.06323e-05
1.61041e-05
1.61043e-05
1.01912e-05
1.03456e-05
4.12679e-06
7.78942e-06
2.6063e-06
3.22852e-06
4.39805e-06
4.0542e-06
0.00531779
0.0165602
0.0797048
0.229754
0.444538
0.20165
0.286075
0.620838
0.6138
0.231372
0.233015
0.109484
0.11533
0.289658
0.387607
0.216924
0.343351
0.155001
0.145031
0.150248
0.230921
0.416932
0.321025
0.463738
0.455566
0.345746
0.413992
0.235014
0.0792056
0.0174227
0.0246742
0.0178576
0.0474514
0.113089
0.165545
0.237171
0.149169
0.0657349
0.109336
0.248823
0.233677
0.486394
0.347214
0.471907
0.383041
0.486646
0.42702
0.271767
0.188488
0.163865
0.2538
0.625189
0.667592
0.710526
0.761005
0.718559
0.651812
0.717551
0.675296
0.715243
0.735823
0.766848
0.766848
0.526742
0.455664
0.559756
0.766848
0.699727
0.706016
0.745477
0.759609
0.781499
0.785072
0.76986
0.776928
0.77932
0.759121
0.825953
0.810115
0.751387
0.63684
0.636177
0.763434
0.640329
0.654948
0.450431
0.26393
0.127835
0.0665461
0.0386687
0.0256962
0.0078355
0.000418507
5.25295e-23
4.28821e-23
1.28366e-21
0.000752252
0.00810765
0.0112822
0.0257664
0.0509704
0.154131
0.36971
0.381487
0.348777
0.364189
0.271479
0.132806
0.052147
0.0733318
0.0520908
0.0528936
0.132301
0.260441
0.443822
0.450629
0.471648
0.470264
0.437328
0.441831
0.398398
0.333273
0.287993
0.214891
0.0831227
0.0748056
0.0657472
0.0492301
0.0325952
0.0189518
0.0249621
0.109627
0.292631
0.0787074
0.0197776
0.000406335
8.77591e-07
3.89271e-07
9.29325e-07
1.32074e-06
7.05221e-07
3.34914e-07
2.59742e-07
2.52744e-07
1.2191e-07
4.54681e-08
8.35134e-09
1.46274e-10
9.94707e-27
2.04577e-23
2.96797e-23
4.10869e-23
3.01197e-09
1.78911e-07
3.3645e-08
3.77426e-08
3.88055e-09
9.44663e-14
1.42093e-11
6.14023e-08
5.30248e-08
1.1088e-06
7.99239e-08
2.16327e-11
9.51784e-09
1.9144e-07
1.41085e-07
5.09377e-06
6.72928e-06
4.22903e-06
1.19604e-06
5.97688e-06
5.40411e-05
3.42821e-05
6.09962e-06
1.24047e-06
3.04004e-07
9.33565e-07
1.57129e-06
8.21072e-07
1.69111e-06
2.08365e-06
2.60421e-06
2.16837e-06
1.07948e-06
1.43005e-06
1.93499e-06
6.31292e-05
0.0414404
0.523354
0.148676
0.0338028
0.0230287
0.0494889
0.107396
0.192105
0.386781
0.171266
0.435539
0.537484
0.535088
0.481507
0.480237
0.354426
0.459835
0.250932
0.354525
0.188366
0.0746307
0.0827841
0.0949621
0.325344
0.430557
0.300494
0.0894112
0.0998686
0.0686852
0.0678215
0.0782213
0.203258
0.230632
0.318297
0.382091
0.522495
0.602199
0.602199
0.597208
0.571718
0.298244
0.138599
0.152504
0.433666
0.56176
0.357314
0.171114
0.00911752
5.56093e-08
6.27697e-08
9.6591e-08
1.67882e-07
1.81919e-07
5.12625e-08
2.22456e-08
1.45133e-08
1.35301e-08
5.24926e-09
2.69103e-09
1.39156e-08
2.9699e-09
8.16026e-10
2.29876e-09
2.04442e-09
1.68606e-09
1.88513e-09
2.07156e-09
2.39449e-09
2.88837e-08
4.69892e-08
1.03537e-07
2.95334e-07
1.18769e-06
1.2548e-06
1.68367e-06
1.9466e-06
2.51059e-06
7.51124e-06
4.75385e-06
1.1939e-05
6.74974e-06
1.07896e-05
1.07896e-05
3.72339e-06
3.72625e-06
6.11113e-06
0.000831685
3.62125e-06
3.3615e-06
0.0031103
0.016251
0.0472181
0.158645
0.304555
0.508377
0.719454
0.719358
0.717415
0.45941
0.508917
0.509571
0.414168
0.418784
0.479492
0.467878
0.460287
0.342855
0.187654
0.143068
0.101905
0.0504242
0.0146396
0.0418813
0.0808618
0.0364893
0.0873075
0.0846927
0.194864
0.124316
0.194361
0.286138
0.150918
0.246773
0.141402
0.299721
0.520288
0.60417
0.605205
0.484493
0.193802
0.0768385
0.166731
0.0828949
0.202269
0.134385
0.0762672
0.0522741
0.0644108
0.0287144
0.00363599
0.0237703
0.0677026
0.185758
0.345555
0.446647
0.253784
0.1239
0.066018
0.167294
0.290009
0.103929
0.156044
0.315578
0.473498
0.387937
0.566366
0.683819
0.618044
0.718031
0.753686
0.753329
0.586485
0.415544
0.586941
0.662712
0.679922
0.700821
0.766848
0.766848
0.498647
0.368815
0.474259
0.346434
0.248777
0.186322
0.388289
0.744428
0.633225
0.514271
0.675532
0.77202
0.721296
0.739868
0.79059
0.77398
0.511478
0.418631
0.543568
0.790471
0.690498
0.676727
0.751507
0.766848
0.766848
0.74966
0.766848
0.764959
0.766848
0.766848
0.71888
0.7064
0.758366
0.737082
0.686913
0.745571
0.748974
0.629417
0.488989
0.685645
0.759074
0.715705
0.804893
0.780599
0.682615
0.511069
0.635034
0.542124
0.415103
0.199366
0.0920574
0.0401138
0.0177191
0.00754293
0.00303973
0.000663554
4.18492e-22
3.91521e-05
4.35035e-06
0.00178381
0.00259269
0.00474651
0.0190352
0.0177147
0.0210016
0.0565162
0.15802
0.0928956
0.133437
0.302694
0.242764
0.186357
0.380015
0.459373
0.459605
0.458892
0.295164
0.0941557
0.0815843
0.139932
0.12569
0.135562
0.290158
0.481588
0.502808
0.585505
0.593439
0.593412
0.586302
0.39733
0.369315
0.296674
0.178575
0.136187
0.181272
0.342999
0.545419
0.419726
0.229422
0.0418767
0.000656019
4.44622e-08
3.71178e-08
3.92385e-08
5.27973e-08
1.99393e-08
1.65488e-08
7.91593e-09
5.54102e-09
4.42328e-09
3.44517e-09
1.70631e-09
1.54601e-09
1.52659e-09
8.58722e-10
5.24402e-09
8.67319e-09
1.61666e-08
2.24603e-08
1.29686e-07
2.41488e-07
8.04019e-07
1.03282e-06
1.1903e-06
1.36839e-06
2.75235e-06
2.12577e-06
5.12083e-06
3.3745e-06
5.27367e-06
2.07302e-06
0.000295772
4.30183e-06
0.00113387
0.00492055
0.0189737
0.0648056
0.168295
0.282698
0.503183
0.675949
0.744637
0.744637
0.67624
0.400497
0.158222
0.106055
0.10608
0.0804777
0.0805436
0.15289
0.0790873
0.152746
0.173216
0.38215
0.508885
0.33537
0.444832
0.34543
0.231344
0.414773
0.303112
0.520143
0.429866
0.201266
0.315691
0.619729
0.493186
0.276405
0.103091
0.0334195
0.00862942
0.0374318
0.118854
0.246672
0.345868
0.536584
0.467523
0.669938
0.666039
0.623381
0.677323
0.599125
0.604183
0.546204
0.5593
0.55837
0.526865
0.493275
0.240624
0.381034
0.122785
0.16866
0.332001
0.476545
0.494964
0.280247
0.204351
0.0888606
0.136026
0.138962
0.050918
0.04358
0.049066
0.0897986
0.0384355
0.00888642
0.00288608
0.00243809
0.00210222
0.00184508
4.61493e-16
6.81679e-15
1.32277e-08
4.68985e-08
0.0227681
0.0650791
0.303708
0.54111
0.823501
0.841491
0.787613
0.853896
0.839089
0.85388
0.870917
0.897775
0.875969
0.897771
0.873953
0.873976
0.852327
0.83812
0.786848
0.727368
0.780768
0.523261
0.677577
0.850585
0.854952
0.854951
0.846579
0.846578
0.838808
0.818538
0.818611
0.750032
0.654342
0.708237
0.456171
0.617879
0.442248
0.629477
0.84938
0.847172
0.849381
0.736345
0.79059
0.741412
0.54831
0.370138
0.528674
0.277405
0.127533
0.0719062
0.262081
0.395979
0.506039
0.602945
0.486164
0.766848
0.766848
0.743315
0.704754
0.580266
0.629978
0.766848
0.755253
0.728467
0.706365
0.736699
0.681136
0.493508
0.471105
0.384962
0.598183
0.697495
0.551115
0.558628
0.467853
0.391462
0.273877
0.131652
0.0648236
0.132465
0.268482
0.235536
0.345497
0.259367
0.221352
0.388035
0.501858
0.390765
0.311832
0.285956
0.411773
0.314683
0.328736
0.439741
0.516472
0.536024
0.191102
0.0750228
0.0299669
0.0115643
0.00395852
0.00145823
0.000676382
3.50606e-05
0.00119776
0.000791422
0.00090844
0.00151271
0.0033437
0.0127391
0.0162011
0.0240684
0.0344309
0.0633552
0.0343473
0.0658763
0.0727932
0.0306736
0.0580039
0.237457
0.338736
0.282504
0.139654
0.409319
0.34894
0.203961
0.208709
0.192604
0.289095
0.217341
0.459759
0.568484
0.469723
0.419533
0.590082
0.42395
0.571942
0.56954
0.522736
0.402192
0.210261
0.243031
0.251263
0.241431
0.10842
0.0968721
0.302284
0.559424
0.483659
0.33006
0.085094
0.0195239
0.00549022
8.25709e-06
1.31423e-08
9.90368e-09
2.14257e-08
5.22277e-09
3.13767e-09
3.37302e-09
2.17191e-09
1.2649e-09
6.12747e-10
2.14769e-09
4.16003e-09
9.50051e-09
4.68918e-08
5.46931e-08
1.0001e-07
2.99468e-08
6.81045e-08
2.5602e-07
4.68394e-07
7.16799e-07
8.64585e-07
1.57331e-06
1.07745e-06
1.47131e-06
7.14773e-07
1.85226e-06
0.00292801
0.0107138
0.0214132
0.0716418
0.253554
0.49285
0.757323
0.76139
0.76139
0.76139
0.661164
0.677016
0.683816
0.605097
0.600872
0.639282
0.565515
0.5462
0.621343
0.605102
0.431371
0.363531
0.461912
0.18848
0.152484
0.0759614
0.177868
0.325278
0.5067
0.684762
0.493632
0.300667
0.404446
0.592057
0.740499
0.740442
0.657038
0.482618
0.310907
0.440206
0.311318
0.305496
0.525001
0.294472
0.42986
0.585572
0.726228
0.774575
0.653475
0.50364
0.346396
0.524917
0.53693
0.28799
0.225638
0.328199
0.183769
0.17357
0.409652
0.349459
0.254844
0.410278
0.300012
0.523888
0.342245
0.514117
0.417254
0.61296
0.500149
0.665341
0.741016
0.611048
0.448464
0.591577
0.409678
0.324516
0.488308
0.740308
0.238667
0.392828
0.225208
0.468153
0.780438
0.698252
0.711761
0.595346
0.567029
0.529327
0.581369
0.630077
0.474172
0.401955
0.560485
0.69017
0.807781
0.586758
0.339405
0.513753
0.333489
0.204243
0.0908702
0.22305
0.404541
0.742885
0.578993
0.655339
0.65714
0.65714
0.636313
0.569628
0.671361
0.539213
0.710028
0.832664
0.83109
0.793959
0.682474
0.516106
0.579154
0.332245
0.222315
0.0614588
0.152095
0.282124
0.655821
0.796314
0.868401
0.902923
0.915365
0.915365
0.856674
0.905285
0.912643
0.912641
0.743376
0.555728
0.734266
0.487071
0.647855
0.807819
0.924377
0.954556
0.947595
0.954556
0.926701
0.92962
0.928841
0.91407
0.917161
0.917161
0.721869
0.824655
0.618692
0.794478
0.951247
0.95281
0.95281
0.925626
0.913795
0.892813
0.913794
0.899838
0.91163
0.911628
0.718054
0.822225
0.634463
0.801337
0.922279
0.905377
0.890981
0.905377
0.857763
0.763091
0.629155
0.667804
0.702564
0.580183
0.60054
0.621009
0.638914
0.62469
0.564143
0.631328
0.526727
0.389594
0.423486
0.544678
0.589001
0.565058
0.524849
0.28602
0.17155
0.108826
0.0515415
0.0163718
0.00579216
1.13204e-08
7.31898e-09
2.8839e-09
1.98683e-09
1.74888e-09
1.90369e-09
2.38878e-09
2.45983e-09
3.86915e-09
1.59664e-09
6.88973e-09
1.19329e-08
2.45522e-08
1.16048e-07
1.79511e-07
3.11826e-07
4.34424e-07
5.79045e-07
5.34827e-07
5.67152e-07
2.82409e-07
2.82409e-07
0.00112587
0.00463641
0.0149993
0.176555
0.309102
0.456871
0.54994
0.634922
0.73571
0.735654
0.74097
0.780415
0.72851
0.738676
0.744095
0.744095
0.695562
0.688278
0.613848
0.63914
0.743097
0.718086
0.792159
0.792159
0.7765
0.877709
0.913514
0.911631
0.913514
0.705269
0.511226
0.701856
0.891692
0.796938
0.775839
0.890101
0.922359
0.957435
0.950937
0.957005
0.958836
0.950578
0.956606
0.915362
0.863544
0.729725
0.732334
0.686129
0.571731
0.579711
0.612705
0.680752
0.720946
0.62355
0.563589
0.506217
0.576036
0.530859
0.401278
0.341553
0.240663
0.112362
0.0963283
0.0526694
0.0212681
0.0069978
1.5878e-05
4.34334e-09
4.32766e-09
2.85208e-09
2.67174e-09
2.67223e-09
5.24371e-09
5.47666e-09
1.0087e-08
2.18501e-08
8.61247e-08
1.95711e-07
2.18258e-07
5.18725e-07
3.67316e-07
3.41912e-07
3.5469e-07
0.00731789
0.0241376
0.0627177
0.115791
0.153401
0.302985
0.375294
0.441263
0.59744
0.689564
0.667741
0.699687
0.704828
0.739417
0.752335
0.637156
0.6311
0.653283
0.52479
0.511243
0.559404
0.576381
0.685511
0.768311
0.80343
0.87166
0.805646
0.903139
0.954547
0.97169
0.960165
0.97169
0.862923
0.723204
0.832337
0.879324
0.967797
0.967548
0.964402
0.985103
0.981773
0.985104
0.973429
0.974166
0.965587
0.969741
0.969741
0.86033
0.700476
0.82163
0.951309
0.880656
0.76987
0.81672
0.799845
0.506646
0.676541
0.726577
0.634146
0.758049
0.721642
0.575841
0.548112
0.655005
0.639038
0.517705
0.353042
0.236873
0.110101
0.103274
0.0232085
0.0187927
0.00801812
0.000332723
0.000211111
1.96221e-05
7.20403e-09
3.36309e-09
1.05039e-08
1.23363e-08
2.5811e-08
3.33629e-08
4.93896e-08
5.22129e-08
1.58653e-07
2.36431e-07
1.30249e-06
8.56255e-07
0.016548
0.0468982
0.090563
0.175025
0.258086
0.38153
0.489467
0.450269
0.566281
0.644136
0.754163
0.785852
0.785855
0.760568
0.761862
0.642307
0.748106
0.748106
0.714277
0.797543
0.798812
0.888418
0.889238
0.906579
0.867632
0.936989
0.959343
0.974261
0.976999
0.982745
0.983226
0.981257
0.98536
0.9791
0.968328
0.967399
0.921428
0.839361
0.864604
0.830169
0.610212
0.764896
0.762794
0.661035
0.755032
0.755714
0.639708
0.615318
0.695643
0.641312
0.397455
0.349461
0.199768
0.070067
0.0259087
0.0258391
0.0233877
0.0583083
0.122925
0.100065
0.068476
0.0593138
0.0327667
0.0186712
0.010616
5.72447e-08
6.14936e-08
8.79194e-08
5.50305e-08
5.09286e-08
1.18572e-07
1.68315e-07
8.74975e-08
0.00627676
0.0147455
0.0391593
0.0740651
0.140397
0.215219
0.266707
0.351354
0.439308
0.559798
0.715391
0.742176
0.785835
0.833759
0.8337
0.715189
0.748106
0.746102
0.801685
0.656302
0.717348
0.859774
0.920401
0.927455
0.90792
0.941627
0.976154
0.985672
0.974313
0.983307
0.918607
0.819044
0.901021
0.930869
0.98393
0.985672
0.977248
0.991142
0.988054
0.988358
0.987836
0.990774
0.980305
0.98603
0.98603
0.975002
0.949062
0.886079
0.893745
0.871021
0.762273
0.756199
0.752866
0.807469
0.801409
0.778401
0.697784
0.666324
0.715665
0.681834
0.537985
0.407287
0.103539
0.0538759
0.135516
0.221573
0.177005
0.385432
0.293948
0.262077
0.261668
0.213271
0.146462
0.0944225
0.0619255
0.0279624
0.0122477
0.00534617
6.63961e-08
0.00149436
0.0167212
0.085952
0.263299
0.231346
0.401195
0.210247
0.347965
0.525749
0.225036
0.349031
0.531987
0.620527
0.884701
0.847254
0.833451
0.784669
0.861742
0.894706
0.833809
0.834717
0.883938
0.909539
0.918537
0.950284
0.95892
0.95892
0.962684
0.972546
0.988404
0.988927
0.986755
0.993249
0.993735
0.993793
0.991874
0.99327
0.98091
0.983806
0.980547
0.952442
0.945516
0.885078
0.838406
0.842395
0.852089
0.87028
0.790759
0.811651
0.80168
0.775615
0.758579
0.758574
0.744552
0.623099
0.611427
0.410811
0.144914
0.100051
0.16895
0.222596
0.359434
0.540075
0.474088
0.716744
0.646588
0.578567
0.554279
0.476828
0.271083
0.0944098
0.136819
0.202012
0.275266
0.364929
0.513986
0.871771
0.933194
0.87948
0.850304
0.810778
0.742786
0.379823
0.529089
0.884701
0.849287
0.849433
0.894706
0.881343
0.911346
0.929916
0.909724
0.915666
0.928341
0.959186
0.968615
0.979266
0.992094
0.992094
0.991963
0.994909
0.994944
0.995347
0.996009
0.993913
0.991072
0.968804
0.963578
0.90117
0.876703
0.892593
0.909166
0.897337
0.846857
0.797752
0.823083
0.675245
0.485455
0.465994
0.43705
0.166873
0.119485
0.205324
0.454484
0.638086
0.821272
0.780291
0.870862
0.924809
0.937494
0.942981
0.921005
0.913478
0.881913
0.618104
0.716985
0.348418
0.473551
0.553948
0.621582
0.947356
0.950946
0.94298
0.729331
0.765364
0.938666
0.925759
0.935949
0.953471
0.977514
0.975024
0.971669
0.990581
0.993874
0.996345
0.996486
0.997092
0.997195
0.995332
0.989826
0.965568
0.970137
0.91693
0.895221
0.915067
0.923564
0.917261
0.822838
0.77238
0.83745
0.66686
0.51746
0.184009
0.183365
0.169985
0.138185
0.299323
0.550335
0.698102
0.84456
0.89649
0.872205
0.888721
0.961998
0.959196
0.947085
0.939648
0.954858
0.96344
0.981274
0.99086
0.983159
0.994531
0.997041
0.99921
0.997259
0.998449
0.98106
0.934846
0.97918
0.998574
0.999013
0.999013
0.982723
0.95643
0.982888
0.998007
0.994344
0.979254
0.982624
0.976955
0.832456
0.875412
0.975871
0.947863
0.867545
0.828435
0.875246
0.874067
0.598683
0.282139
0.0929484
0.158615
0.346512
0.494183
0.45622
0.415935
0.671821
0.718455
0.451671
0.69099
0.322856
0.432678
0.504265
0.88999
0.972594
0.965363
0.958703
0.974913
0.943472
0.935413
0.97251
0.994803
0.996223
0.99672
0.991238
0.997165
0.998466
0.99921
0.997731
0.998798
0.99897
0.999261
0.997307
0.988897
0.992833
0.988161
0.902497
0.918081
0.976318
0.970212
0.905125
0.877609
0.926775
0.922552
0.377467
0.1424
0.470889
0.613458
0.809041
0.733947
0.659036
0.14756
0.202729
0.283461
0.401696
0.86842
0.970978
0.951397
0.923248
0.987772
0.99277
0.994293
0.963594
0.962265
0.984272
0.997606
0.998433
0.995742
0.998511
0.999071
0.999496
0.999055
0.999509
0.999451
0.999627
0.998735
0.994408
0.996792
0.994706
0.951732
0.958796
0.985457
0.982315
0.934327
0.917228
0.954256
0.947057
0.479966
0.215577
0.549407
0.699536
0.772902
0.916542
0.984195
0.998402
0.996912
0.994583
0.926689
0.953157
0.996958
0.983025
0.991181
0.992666
0.998624
0.999048
0.997937
0.999122
0.999348
0.999657
0.999401
0.999709
0.999697
0.99978
0.999375
0.997245
0.998472
0.997742
0.975029
0.978194
0.992867
0.990695
0.959055
0.949407
0.973034