/*--------------------------------*- C++ -*----------------------------------*\
  =========                 |
  \\      /  F ield         | OpenFOAM: The Open Source CFD Toolbox
   \\    /   O peration     | Website:  https://openfoam.org
    \\  /    A nd           | Version:  7
     \\/     M anipulation  |
\*---------------------------------------------------------------------------*/
FoamFile
{
    version     2.0;
    format      ascii;
    class       surfaceScalarField;
    location    "18.9";
    object      alphaPhi0.water;
}
// * * * * * * * * * * * * * * * * * * * * * * * * * * * * * * * * * * * * * //

dimensions      [0 3 -1 0 0 0 0];

internalField   nonuniform List<scalar> 
42560
(
-1.78874e-08
4.63551e-08
-2.68144e-07
-3.44267e-10
4.70417e-09
2.10875e-07
-2.15171e-08
-1.88442e-13
2.54946e-10
-6.68407e-15
1.23236e-08
-4.20716e-07
3.34007e-07
-5.68338e-13
8.50833e-09
7.98759e-11
-5.89109e-12
1.67627e-11
6.12916e-14
-1.37207e-10
3.53276e-10
-3.06157e-12
-3.84162e-10
1.44076e-09
-3.07697e-12
3.99973e-09
1.14558e-08
7.09607e-11
1.64728e-07
-9.24171e-09
1.94408e-08
7.79963e-07
-4.35593e-07
-5.56926e-10
5.57319e-07
-7.42518e-07
1.86663e-07
2.15476e-07
1.14575e-08
2.80751e-08
2.0937e-08
8.8639e-08
1.59161e-08
5.87314e-10
8.72856e-09
1.96402e-11
9.74884e-12
1.69026e-10
-5.72631e-16
1.42002e-13
2.42288e-12
1.13286e-15
-4.28106e-19
3.39225e-14
-3.00929e-18
-2.00542e-20
3.29469e-18
-2.10012e-21
6.84998e-19
1.1649e-17
-3.35484e-21
-4.46294e-19
1.89852e-17
-1.91563e-21
1.07316e-20
2.93827e-18
-2.18175e-24
7.66285e-18
9.65389e-17
-2.37066e-18
-4.34731e-11
4.0928e-11
-8.1902e-16
-3.9897e-10
3.23678e-10
-2.76013e-16
-1.28552e-08
1.14576e-08
2.36516e-10
-1.92105e-07
1.58194e-07
1.48871e-08
-4.06597e-07
9.92046e-08
1.04807e-07
-7.1006e-07
-8.41853e-08
6.60402e-08
-1.09819e-06
-9.04171e-08
-4.18883e-09
-2.11031e-06
-9.99555e-08
1.03189e-07
-2.77738e-06
-2.36226e-07
-9.45123e-09
-3.30656e-06
-4.62189e-07
-9.62014e-08
-4.26743e-06
-1.89851e-07
-1.73294e-08
-7.43514e-06
7.17239e-07
1.12714e-06
-9.49146e-06
7.00167e-07
-1.19171e-08
-1.28195e-05
-4.8571e-07
-4.74021e-07
-1.88957e-05
-2.04216e-06
-2.55345e-06
-3.3169e-05
-4.69046e-06
-3.16902e-06
-8.27123e-05
-1.28844e-05
8.56997e-06
-0.000114458
-3.71112e-05
-1.05105e-05
-0.000187252
-6.4814e-05
-1.31263e-05
-0.0004448
-0.000143577
4.0381e-05
-0.000608813
-0.000336539
-4.66428e-05
-0.00102977
-0.000625554
-7.64523e-05
-0.00214488
-0.00139731
-5.47076e-06
-0.00195731
-0.00349075
-0.000834359
-0.00295993
-0.00453287
-0.000629558
-0.00508475
-0.00924043
-0.0014912
-0.00428066
-0.0166511
-0.00287359
-0.00326933
-0.0238061
-0.00373916
0.00100781
-0.0291787
-0.00599848
0.00445662
-0.0300609
-0.00536616
0.0050091
-0.0273018
-0.003855
0.00494048
-0.0184936
-0.00334061
0.00145805
-0.0087395
-0.000344293
0.000408417
-0.00658451
-1.97874e-05
0.00317727
-0.0192652
-0.000986537
0.000633253
-0.0109247
-0.000466109
-0.00254446
-0.00691302
-0.00015984
0.000401467
-0.0188444
-0.000637818
-0.00117112
-0.0168206
-0.000733113
-0.00198613
-0.0140412
-0.000259176
0.00257392
-0.0192154
-0.00134243
0.000799328
-0.0154281
-0.000714713
0.000185662
-0.0120732
-0.000288226
0.00100304
-0.00937675
-0.000700417
0.00122029
-0.00498288
-0.000477086
0.000993025
-0.00253677
-0.000286395
0.000381871
-0.000785256
2.41474e-05
0.000163195
-0.000333769
-5.0447e-05
7.58111e-05
-0.000163673
-1.62236e-05
8.85457e-06
-8.5939e-05
1.53541e-05
-0.000107127
-0.000158648
3.11922e-06
-0.000337506
-0.000422896
1.29411e-05
-0.000437414
-0.00139459
-9.80291e-05
-0.000167245
-0.00245642
-0.000178992
-0.000140054
-0.00413983
-0.000260254
-0.000911639
-0.00290345
-0.000306193
-0.00316533
-0.0101892
-0.000385081
0.00107659
-0.0142935
-0.00166874
-0.00569415
-0.0142642
-0.000843332
-0.0068578
-0.0274635
-0.00133694
0.000160572
-0.0413385
-0.00393252
-5.69728e-05
-0.0310668
-0.000247903
-0.00638188
-0.0359455
-0.00210583
0.00503155
-0.0482546
-0.00410553
0.00169979
-0.0310088
-0.000507773
-0.00025837
-0.0350404
-0.00248825
-0.000442552
-0.0373702
-0.00285074
-0.000670691
-0.0398197
-0.00316952
-0.000355352
-0.0392494
-0.00305543
0.000123917
-0.0391584
-0.00306235
-0.000191291
-0.0399822
-0.0030348
0.000202701
-0.0371812
-0.00281327
-0.00207314
-0.0351428
-0.00245859
-0.00399175
-0.0305775
-0.000360577
0.00498051
-0.0451727
-0.00352649
0.00146587
-0.0340203
-0.00159672
-0.00175166
-0.0282814
-4.07269e-06
0.00526597
-0.0310647
-0.00235704
0.00233738
-0.0216772
-0.000788076
0.000899334
-0.0124006
-0.000287068
0.0015249
-0.00803558
-0.00094877
0.000231926
-0.00354959
-1.85175e-05
-0.000126373
-0.00241669
4.67223e-05
0.000124065
-0.00442922
-0.000133093
0.00041338
-0.00277721
-0.000178841
0.000312471
-0.00148103
-0.000106063
5.28441e-06
3.28648e-05
-0.000432867
-0.00017369
1.04698e-05
-0.000192692
-0.000360281
-2.30184e-05
-0.000642081
-0.000553408
-0.000132119
-0.00144748
-0.0015965
-0.000232343
-0.0024861
-0.00376924
-7.56372e-05
-0.0056737
-0.00292195
-0.00132678
-0.014998
0.00136151
-0.00178481
-0.0187665
0.00188257
-0.00122495
-0.0191194
0.000414171
-0.000704726
-0.0101364
-0.00209613
-0.001142
-0.00705681
0.00135277
-0.000597583
-0.00313853
-0.000393337
0.000149565
-0.00513902
-0.00104198
0.000129698
-0.00541581
0.000561322
-0.000197647
-0.0122123
0.000201415
0.000328106
-0.00343343
-0.00149071
0.000214339
-0.00524673
0.00102738
-0.000288082
-0.00809904
0.000109187
0.000384983
-0.00735197
-0.000654827
1.03917e-05
-0.00967225
-0.000878021
-0.000261511
-0.010575
-0.000800453
-0.000535387
-0.0118091
-0.00057799
-0.000344267
-0.0113795
-0.000570362
-0.000356282
-0.00977832
-0.00141064
-0.00058503
-0.00916725
-0.00145549
-0.0009055
-0.0158437
-0.0025464
-0.000403057
-0.0165248
-0.00336891
8.00223e-05
-0.00961401
0.000285221
-0.0011747
-0.0159702
-0.00056974
-0.00161506
-0.019803
-0.00216101
-0.00069656
-0.0175058
0.00383021
-0.00237253
-0.0242069
0.00170165
-0.000891196
-0.0164192
0.000919704
-0.000605959
-0.00961553
0.00193936
-0.000966955
-0.00637679
0.000834021
-9.29604e-05
-0.00274264
0.000466489
-0.000126368
-0.00108645
0.000293466
-7.93391e-05
-0.000555907
0.000208638
-4.65237e-05
-0.000261967
0.000154109
-2.93736e-05
-0.000121844
6.36708e-05
1.45346e-05
-4.44218e-05
1.64749e-05
-2.01857e-07
-2.33357e-05
-1.17017e-05
5.59324e-06
-1.87586e-05
-1.18199e-05
-9.46818e-06
-2.76848e-05
-4.907e-05
-3.35993e-05
-3.19751e-05
-0.000196965
-7.52284e-05
-0.000103251
-1.58146e-05
-0.000690994
-0.000494941
0.000101052
-0.000349871
-0.000228103
3.6554e-05
-6.51166e-05
-6.36907e-05
1.13573e-05
-2.05178e-05
-1.34156e-05
8.79081e-06
-1.63403e-05
-3.68767e-06
5.34593e-06
-1.4404e-07
3.73505e-06
1.99026e-06
6.27151e-07
2.30132e-06
5.11137e-08
1.29504e-06
8.45412e-09
1.98395e-09
4.04448e-08
2.03066e-07
4.09881e-07
-1.70451e-06
-6.03377e-10
1.5456e-06
2.52884e-05
-4.29459e-05
-8.96476e-07
1.02292e-05
6.47357e-06
1.45787e-06
-3.93486e-05
-5.10195e-06
-8.32749e-05
-0.000178341
-0.000116589
4.55638e-05
-0.00105365
-0.000808363
6.47805e-05
-0.00151954
-0.00167695
0.000248694
-6.4654e-05
-0.000540155
-0.000536517
4.94788e-05
-4.02324e-05
-1.95264e-05
-1.60596e-05
-8.93372e-06
-4.61621e-05
-1.04589e-05
-1.32692e-05
6.28267e-06
-5.209e-06
-1.50099e-05
-1.36197e-06
-2.74592e-06
-1.71682e-07
-1.03627e-05
-1.68026e-07
1.4794e-06
5.99216e-06
-2.14812e-05
-3.00652e-05
-1.00769e-05
-3.11629e-05
-4.77608e-05
-7.92243e-05
-1.15989e-05
-0.00010863
-0.000214729
-0.000216485
-0.000186786
-0.000458647
-0.000296494
-0.000212834
-0.00037671
-3.67225e-05
-0.000832053
0.000324607
-0.000969235
-0.00304776
-0.000529878
-0.00112493
-0.00233843
-0.00142617
2.11109e-05
-0.00125194
-0.00061066
-0.00580334
0.00182432
-0.00141546
-0.0117218
0.000289808
-0.00352565
-0.00215578
-0.00402583
0.000443673
-0.000840532
-0.00134619
-0.00818742
0.00194428
-0.000754965
-0.011171
0.00109711
-0.00287285
-5.7902e-07
-0.00291587
0.00178812
-0.000552661
-0.00122729
-0.00762144
0.000476296
-0.00305055
-0.000407553
-0.00252996
0.00101991
-0.000443174
-0.000830272
-0.00587352
0.000340995
-0.00224295
-0.000206672
-0.00210811
0.000862705
-0.000362832
-0.000599047
-0.00482129
0.000241188
-0.00213244
-0.000196261
-0.00188761
0.000368742
-0.000314586
-0.000408237
-0.00415221
-1.07246e-05
-0.00162781
-0.000161848
-0.00132948
0.000204874
-0.000288377
-0.00447824
0.000541359
-0.000236212
-0.000254515
-0.00301361
4.3526e-05
-0.00148915
-7.70912e-05
-0.0013152
0.000182431
-0.000188768
-0.00405142
0.000528205
-0.000333933
-0.000219827
-0.00317327
-2.59444e-05
-0.0016225
-0.000538708
-0.00121758
0.000190249
-0.000495716
-0.00567368
0.00156456
-0.000532004
-0.000669739
-0.00439886
6.04476e-06
-0.00230946
-0.00123911
-0.00159831
-0.000111915
-0.00109497
-0.0072823
0.000413785
-0.00105496
-0.00598537
0.000504382
-0.000700417
-0.00349507
0.000491647
1.81364e-05
-0.000119434
-0.000658137
0.000324935
-0.000227657
5.81809e-05
-0.000250279
8.81556e-05
-9.88755e-05
-0.000368981
9.48074e-05
-1.04826e-06
-0.00036449
3.07681e-05
-4.28323e-05
5.84746e-06
-7.70468e-05
-4.06843e-05
1.21491e-05
-2.02295e-05
-0.000221198
-1.61616e-05
4.7719e-06
-0.000187073
-2.82182e-05
-0.000190608
-1.17626e-05
-1.45705e-07
3.1505e-06
-4.49476e-05
-5.84347e-05
-4.12751e-05
-0.000203501
1.12121e-05
-0.000677829
-0.000962959
0.000158156
-0.000847483
-0.00199912
-0.000699611
-0.00320807
0.00015583
-0.000548869
-8.1274e-05
-0.00110682
0.000163082
-0.000390723
-0.0015023
-0.00027614
-0.00246855
9.37358e-05
-0.000208343
-0.000104398
-0.000574839
9.30204e-05
-0.000197492
-0.000861102
-0.000205994
-0.00169638
0.000107575
-0.000179564
-7.68067e-05
-0.000496209
0.000112945
-0.000204772
-0.000990649
-0.000234869
-0.00229321
0.000149592
-0.000196697
-0.000139534
-0.000747065
-0.000253263
-0.00238367
0.00020796
-0.000258041
-0.000163808
-0.000846343
-0.000340937
-0.0027592
0.000268378
-0.000345727
-0.000257239
-0.00112627
-0.000463381
-0.00371732
0.000416192
-0.000542158
-0.000388059
-0.00167868
-0.000716524
-0.00518042
-0.000707503
-0.000773459
-0.00319813
-0.000749906
-0.000781604
-0.00158998
0.000419763
-0.000677194
-0.000562631
-0.00100377
-0.000454803
-0.000903121
0.000370834
-0.00038936
-0.000509154
-0.000633029
-0.000263624
-0.000526165
0.000225354
-0.000245295
-0.000277838
-0.000414865
-0.00015714
-0.00036469
0.000223069
-0.000141567
-0.000247972
-0.000279121
-0.000119808
-0.000351244
-0.000123121
-0.000186649
-0.000225159
0.000101593
-0.000126884
-0.00017773
0.00018565
0.000192904
-0.00109516
-0.00022846
-0.000241233
0.00026593
-0.00035467
-0.00010696
-0.001237
-0.000389111
-0.000458633
0.000773494
-0.00100607
-0.00054312
-0.0025673
0.00104939
-0.000693498
-0.00120264
0.00121218
-0.00104884
-0.0017964
0.00115975
-0.000868761
-0.00281422
-0.000803911
-0.00542991
-0.00154685
-0.000759549
-0.00321291
-0.00147495
-0.000937696
-0.00231737
0.00107072
-0.00129395
-0.00176309
-0.00644406
0.0012965
-0.000969597
-0.00190868
0.00105468
-0.000602038
-0.00232991
-0.000251849
-0.00238439
-0.000590972
-0.000122554
-0.000862007
-0.000841983
-0.000313708
-0.00113515
-0.00104065
-0.000503094
-0.000948776
0.000579203
-0.00033859
-0.00141402
-0.00267829
0.000356183
-8.59267e-05
-0.000445591
0.000217725
-0.000107673
-0.00032039
0.000133874
-4.76835e-05
-0.000266699
-7.63864e-06
-0.000211313
-6.65527e-05
9.76972e-08
-3.42711e-05
-8.61305e-05
-2.63329e-05
-4.05657e-05
5.7758e-05
3.56446e-05
-0.000283403
-0.0001476
3.6198e-05
-9.87001e-08
-1.08151e-06
2.69219e-06
1.04855e-06
-8.2483e-08
4.95693e-08
2.60631e-06
-2.41553e-06
4.70405e-08
2.15648e-06
1.72113e-06
3.41004e-06
-4.11307e-06
3.194e-05
-1.49142e-07
3.04961e-07
1.56504e-06
-1.91127e-06
2.00081e-07
1.54635e-06
1.09992e-06
4.27854e-06
-0.000154647
-7.87745e-05
-0.000379735
9.91292e-05
-0.000270867
-0.00061969
0.000207963
-0.000878288
0.00117432
0.000289801
-0.00370669
-0.00577033
0.000933926
0.000263876
-0.00155832
0.000121819
-0.000978316
-0.00313917
2.13713e-06
-0.0039411
-0.00349288
4.6599e-05
-0.00968397
0.00315147
-0.000258338
-0.000235779
-0.0237942
-0.0574633
0.00249821
-0.000156184
-0.00667839
6.81501e-05
-0.00240772
-0.00037533
-0.000287885
-0.000620317
-1.18282e-08
-0.000928133
-0.000193919
-1.35271e-06
-0.00206841
-6.97917e-05
-9.23132e-06
-0.000635609
2.03341e-05
-2.08246e-10
2.80871e-05
-0.000118968
-0.000100122
8.15014e-06
-3.91596e-11
4.6196e-06
2.53833e-06
-2.20426e-12
4.76119e-06
7.295e-09
1.72622e-06
-4.88267e-12
-2.23221e-10
4.8321e-09
-1.94e-11
-1.48492e-13
1.32699e-11
-1.1057e-10
-2.64247e-12
7.31616e-11
4.89808e-11
-1.983e-12
-2.32033e-10
2.37822e-11
8.49088e-13
4.77132e-12
-1.85069e-14
4.50801e-11
5.16874e-13
2.39114e-15
4.29494e-12
1.67237e-09
3.40414e-08
7.69171e-09
-8.08523e-12
2.91388e-09
4.43102e-07
-6.12522e-07
4.10326e-07
8.67638e-08
-3.28727e-07
-1.49476e-06
-5.08114e-06
6.08449e-06
1.53284e-06
-3.91818e-08
-1.64503e-06
4.22919e-07
-3.89823e-07
-2.17491e-08
-1.24323e-08
4.10743e-08
-1.95886e-08
-1.37679e-09
1.66105e-09
9.2801e-09
-1.9493e-08
-3.50916e-10
1.10524e-10
1.35689e-10
-2.38263e-09
7.15242e-09
1.7345e-10
1.58436e-09
1.44954e-08
7.65709e-10
1.06955e-07
8.93934e-09
8.47183e-09
6.41447e-07
-4.54812e-07
9.31584e-08
8.59808e-07
-3.87618e-07
-3.08569e-08
6.03853e-07
-1.39221e-07
2.80646e-07
2.39351e-07
1.13323e-07
-1.86004e-08
1.50952e-08
1.41242e-07
2.38659e-08
8.84412e-11
8.57657e-09
1.15309e-09
1.17063e-12
6.24065e-11
6.78516e-12
4.02649e-14
7.96364e-13
6.67973e-14
-1.17413e-17
1.53304e-14
8.2552e-16
5.45703e-19
2.18936e-16
1.90323e-17
4.71723e-17
9.30451e-16
7.97463e-17
-1.22468e-14
5.35207e-14
2.75955e-15
9.13225e-16
2.06008e-13
1.84609e-14
2.68949e-16
2.59938e-15
2.4058e-16
-5.4142e-12
3.76378e-11
2.98155e-12
1.28384e-11
2.5913e-10
3.05529e-11
1.91417e-09
8.50202e-09
5.71343e-10
1.89047e-08
1.17073e-07
1.70635e-08
1.32963e-07
-3.29301e-08
1.31508e-08
1.11335e-07
-6.5095e-08
-1.67112e-09
1.82884e-08
2.41863e-09
1.44341e-09
-6.81688e-08
3.24892e-09
-1.71228e-08
-3.50565e-07
3.50908e-09
7.69466e-10
-8.60427e-07
-4.03089e-08
5.60349e-08
-8.77769e-07
-1.72163e-08
-1.55293e-07
-8.24008e-07
4.47024e-07
1.69815e-07
-2.45702e-07
9.50147e-08
-8.77411e-09
-7.8342e-07
2.70796e-07
-2.33358e-07
-2.25645e-06
1.14774e-07
-7.19608e-07
-5.97986e-06
-3.14442e-07
-6.81075e-07
-1.91882e-05
-8.41982e-07
1.14544e-06
-4.02729e-05
-1.19079e-05
-4.04575e-06
-7.50709e-05
-2.05989e-05
-9.32239e-06
-0.000191127
-3.92972e-05
1.21955e-05
-0.000324913
-0.00016419
-3.62137e-05
-0.000540638
-0.000297068
-0.00010601
-0.00129861
-0.000637447
5.32487e-06
-0.00132368
-0.00248117
-0.00102998
-0.0020365
-0.00297943
-0.000968651
-0.00430023
-0.00560721
-0.0015345
-0.00395028
-0.0120609
-0.00507921
-0.00404911
-0.0180098
-0.00551647
0.000732567
-0.0254774
-0.00848284
0.00517963
-0.0262115
-0.00829679
0.00432003
-0.0203662
-0.0065586
0.0037178
-0.0121723
-0.00636279
0.000858155
-0.00605059
-8.01582e-05
-0.000245478
-0.00617832
-0.000201647
0.00281511
-0.0195097
-0.00262009
-9.72589e-06
-0.00833732
-0.00206662
-0.00154141
-0.0053217
-0.00140182
-0.000306465
-0.0182061
-0.00184566
-0.0009543
-0.0140912
-0.00210427
-0.00231923
-0.0113741
-0.00128513
0.00213577
-0.0212566
-0.00244748
0.000747247
-0.012668
-0.00135169
-0.000177613
-0.00992307
-0.00124257
0.00144403
-0.00970329
-0.00167081
0.00134891
-0.00429204
-0.000961322
0.000864556
-0.00200051
-0.000471145
0.000119829
-0.000139094
1.76859e-05
9.5736e-05
-0.00026797
-5.18526e-05
3.18394e-05
-8.95865e-05
-6.08078e-06
-2.45185e-05
-3.8738e-05
7.96631e-06
-5.33835e-05
-0.00013713
-2.74964e-05
-0.000369738
-0.000134821
6.64452e-06
-0.000612865
-0.0010162
-0.000161241
-0.000307723
-0.00272633
-0.000395838
4.9645e-06
-0.00369532
-0.000761708
-0.000398864
-0.00189185
-0.00056221
-0.00394573
-0.00578407
-0.00105244
0.000775366
-0.0152406
-0.00419366
-0.0015387
-0.00870879
-0.00297469
-0.00793573
-0.0190509
-0.00239404
0.00246932
-0.0441438
-0.00857855
-0.000132495
-0.0266237
-0.00258367
-0.00300479
-0.0295995
-0.00412651
0.00531327
-0.0481053
-0.00888514
0.00166889
-0.0248713
-0.00249306
9.6788e-05
-0.0286999
-0.00476937
-0.000745695
-0.0310958
-0.00543194
-0.000687948
-0.0340882
-0.00579161
-0.000311701
-0.0338712
-0.00575323
-7.66465e-06
-0.0338217
-0.00564314
0.000218139
-0.0344829
-0.00572382
-0.000483134
-0.0312488
-0.00523341
-0.00180436
-0.0291543
-0.00466621
-0.00506901
-0.0249447
-0.00237003
0.00267223
-0.0443962
-0.00801457
0.000496848
-0.0281701
-0.00348981
-0.00224679
-0.023707
-0.002062
0.00418132
-0.0308093
-0.0055788
0.00195584
-0.0175944
-0.00184319
0.000693426
-0.00905011
-0.00174111
0.00155762
-0.00885588
-0.00231763
0.000273629
-0.00295033
-0.000321265
-0.000232292
-0.00156171
-0.000374889
-7.65985e-06
-0.00400736
-0.000253481
0.000335802
-0.00212025
-0.00039716
0.000318357
-0.00120435
-0.000221653
1.55617e-06
-0.000148836
8.6864e-07
-0.000185731
-0.000102091
8.3826e-06
-0.000460675
-5.02185e-05
-0.000591677
-0.00092296
-0.000208209
-0.00131889
-0.0010949
-0.00244311
-0.000534754
-0.00544502
-0.00201346
-4.87869e-05
-0.00348787
-0.0147104
-0.0024361
0.00133187
-0.0206809
-0.0036781
0.00143571
-0.0162208
-0.00300245
0.000521367
-0.00678099
-0.00332885
-0.000792667
-0.00489673
-0.00267062
0.000545242
-0.00649628
-0.00173436
1.51986e-05
-0.00384194
-0.000764434
-0.000536972
-0.00418128
-0.000685617
0.000618383
-0.0101224
-0.00122421
3.72629e-05
-0.00313448
-0.000253976
-0.000411927
-0.00375138
-0.000415995
0.000591493
-0.00582732
-0.00135017
7.49032e-05
-0.00341741
-0.000218827
-0.000675354
-0.00629204
-0.000611364
-0.00106809
-0.0108487
-0.0013501
-0.00102622
-0.0138808
-0.00116571
-0.000659225
-0.0134481
-0.00165167
-0.00106226
-0.0116338
-0.00154294
-0.00115366
-0.0103345
-0.00257728
-0.00135915
-0.0137162
-0.00176974
-0.00122711
-0.0139974
-0.00205295
-0.0034679
-0.00736836
-0.000476548
-0.000942494
-0.0209942
-0.00385147
-0.000974345
-0.016211
-0.00356019
-0.00233564
-0.0141547
-0.0019897
0.00414668
-0.0264167
-0.0042726
0.00212398
-0.0143784
-0.00217364
0.00162015
-0.0098629
-0.00168647
0.00177278
-0.00543849
-0.00165723
0.00055831
-0.00156863
-0.000119457
0.000281523
-0.000623059
-0.000217126
0.000182813
-0.000361431
-0.00012044
0.000110732
-0.000136384
-6.10882e-05
6.92358e-05
-4.29828e-05
-2.85108e-05
1.73274e-05
5.25558e-06
5.50681e-06
7.12159e-06
1.01738e-09
-1.33389e-05
-8.76405e-06
-3.81191e-06
3.16747e-06
-1.0607e-05
-8.23787e-06
4.39107e-07
-1.26112e-05
-1.79181e-05
-1.28013e-05
-0.000104228
-7.32139e-06
-1.3584e-05
2.993e-05
-0.000297286
-0.000369989
4.8664e-05
-9.92824e-05
-0.000162371
1.54908e-05
-1.32573e-05
-2.27257e-05
7.93229e-06
-5.56208e-06
-1.419e-06
6.99533e-06
-1.13794e-06
-1.13081e-06
6.99828e-06
3.21082e-06
8.90375e-07
3.93012e-06
3.6681e-06
1.08913e-06
1.34614e-06
3.56764e-06
1.99578e-07
1.82804e-08
1.23515e-06
1.61683e-08
1.78713e-09
5.4952e-09
3.29103e-09
-1.49721e-06
7.51214e-07
3.57692e-06
-3.01244e-06
9.73043e-07
4.41892e-06
-3.67262e-06
-2.38415e-06
2.23017e-06
-2.13551e-06
-2.85804e-06
7.39172e-06
1.96376e-06
7.56468e-06
-4.18278e-07
-3.40908e-06
5.39425e-06
8.15339e-07
-7.43748e-08
-1.51202e-06
1.92092e-07
-1.14655e-07
-2.06073e-06
1.42593e-06
7.65887e-07
-9.01094e-07
-9.21078e-07
-1.01338e-07
6.28568e-07
-6.12878e-07
5.20223e-07
-7.93093e-08
-6.61513e-10
5.14849e-07
-1.83279e-07
-1.32592e-07
2.80165e-07
-1.10103e-08
-7.58798e-08
-1.11486e-07
5.43228e-07
4.64724e-08
-1.57992e-07
2.57157e-07
-4.86374e-08
5.03502e-08
3.04811e-08
-1.09244e-07
-5.42036e-08
-1.27123e-08
-3.84937e-08
-2.90917e-08
-2.03989e-08
5.19874e-08
7.71161e-09
-9.5605e-10
3.62978e-08
6.44793e-09
-5.45435e-12
1.15785e-09
3.80672e-10
-1.16891e-14
9.02147e-12
2.97814e-12
5.81561e-15
2.05417e-13
6.45486e-14
-3.2133e-16
1.82237e-14
4.66587e-15
-1.25298e-16
3.38454e-15
1.06134e-15
1.41573e-15
1.33162e-14
4.42044e-15
-1.63649e-13
8.28233e-13
2.4332e-13
1.24463e-15
1.71014e-12
4.99134e-13
1.47905e-15
7.27404e-15
2.40979e-15
5.24016e-13
2.36757e-11
6.82396e-12
1.74819e-11
1.78812e-10
5.16961e-11
3.43214e-09
3.7179e-09
1.06781e-09
5.60718e-08
4.41687e-08
1.2505e-08
5.92303e-08
-3.06171e-09
-8.25105e-09
8.71013e-09
-7.76911e-10
-6.69273e-09
-2.52806e-08
1.60756e-08
2.02831e-08
-5.15938e-10
3.33304e-08
-5.4952e-08
2.53977e-08
4.60188e-08
-1.96019e-08
5.38358e-08
-3.26342e-09
-2.13234e-08
2.28604e-08
-3.28151e-08
1.59291e-08
-1.79846e-07
2.39401e-07
-8.18657e-08
2.77674e-08
1.7959e-07
4.30338e-08
3.75751e-07
5.13178e-08
-2.07182e-08
3.92494e-07
8.18603e-08
-8.99888e-09
7.16715e-07
8.97615e-08
-1.57745e-07
9.85635e-07
9.28167e-08
-2.70358e-07
4.95162e-07
-1.34102e-08
1.89441e-07
1.18504e-07
-6.82152e-07
2.16827e-07
-1.09106e-05
-9.99022e-07
1.51082e-07
-2.07798e-05
-5.06854e-06
-5.60641e-06
-7.49782e-05
4.39861e-06
1.07633e-05
-0.000139381
-7.02805e-05
-2.91254e-05
-0.000211747
-0.000141949
-8.40835e-05
-0.000839388
-1.11357e-05
-6.22642e-06
-0.000887863
-0.00129735
-0.00119164
-0.000822732
-0.00168576
-0.00133351
-0.00335854
-0.00180803
-0.00122119
-0.00200838
-0.00780035
-0.00539408
-0.00431946
-0.00960159
-0.00575834
0.000551494
-0.0200851
-0.0102635
0.00572149
-0.0207461
-0.0106352
0.00224636
-0.0124229
-0.00426933
0.00306463
-0.00894963
-0.0040122
0.000883112
-0.00368211
-0.00151329
-0.00057765
-0.00412998
-0.00193963
0.00150714
-0.0158704
-0.00593696
-0.000704236
-0.00569112
-0.0012021
0.00332798
-0.00397602
-0.000273476
-0.00211682
-0.00031874
-0.000637477
-0.012807
-0.00477664
-0.000532713
-0.0110851
-0.00308886
-0.00201784
-0.00753554
-0.00236868
0.00176517
-0.0165063
-0.00645343
0.000392688
-0.00741625
-0.00239782
-0.000366413
-0.00530836
-0.00219707
0.0006013
-0.00557836
-0.0029481
0.000653808
-0.00300583
-0.00137815
0.000297672
-0.00129192
-0.000554449
0.000490083
0.000163312
-0.000331429
-7.53149e-05
5.18647e-06
5.17023e-05
7.75668e-05
2.82047e-05
4.76345e-05
1.06039e-05
-2.01364e-05
-7.35339e-06
-2.54035e-05
-9.72247e-06
5.99605e-06
-5.78567e-05
2.86234e-05
-2.60472e-06
1.14338e-05
0.00024258
-0.000142511
-6.94216e-05
-2.86628e-05
3.99191e-05
8.36498e-06
9.01818e-07
2.11108e-05
1.10184e-05
-8.1721e-06
2.66304e-06
1.23925e-05
1.13437e-06
1.69608e-05
-2.74719e-05
3.65095e-06
2.25163e-05
5.00844e-06
-1.07788e-05
1.85162e-05
-2.49258e-05
2.66795e-06
-2.00538e-05
1.53855e-05
-4.9142e-05
-2.06239e-05
1.25078e-05
-4.12089e-07
-4.09656e-05
-1.27948e-06
7.18373e-06
-3.37111e-07
-8.88758e-06
5.55906e-07
2.7227e-06
1.3698e-07
3.50634e-06
1.30509e-06
9.05722e-08
9.09138e-07
1.44172e-07
1.58349e-06
1.60186e-07
2.72693e-09
3.52608e-08
2.90027e-09
5.35716e-08
5.40718e-11
8.10023e-10
-1.21497e-14
1.97786e-09
4.10153e-15
1.66865e-11
-1.28473e-16
3.91795e-11
-3.64623e-17
2.0135e-16
1.27303e-16
3.95536e-15
-4.01397e-15
-6.57519e-17
4.70322e-17
3.97277e-15
-1.8187e-14
3.70359e-15
3.77688e-15
4.43511e-15
-8.5186e-14
8.41945e-14
2.35869e-13
1.86062e-13
1.68204e-13
1.4874e-13
-7.46834e-12
6.39358e-12
1.64866e-08
3.58228e-08
-2.37191e-06
2.30534e-06
9.10082e-07
1.35484e-07
-1.00095e-05
9.62096e-06
6.35124e-08
1.70943e-08
2.45943e-08
7.99462e-07
5.5818e-06
-6.24521e-05
1.07474e-06
5.17012e-05
-6.54289e-05
4.87107e-06
6.69246e-05
-0.000355719
-0.000520808
0.000257338
-7.90848e-09
-0.00101429
0.000860896
-0.000781713
-0.00334975
-0.000629293
-0.00179268
0.000292215
-0.000396754
-9.35386e-14
-0.000898266
-5.64714e-06
-0.000308088
3.17224e-06
-1.33321e-31
-1.62572e-14
2.57052e-06
-5.6402e-06
3.16703e-07
1.29594e-05
-3.81735e-23
-1.47254e-31
6.28242e-06
0.000331967
-0.00022433
0.000355981
-0.00105728
9.93381e-05
-7.07613e-05
0.000314163
-0.000265026
7.30093e-05
-0.000210082
-0.000277364
-0.000206772
-0.00122098
-0.00028448
0.000940975
0.000438675
-0.00127451
-0.00147685
0.000758833
0.00183825
-0.000549036
-0.0015951
0.00155534
-0.00571613
0.0034135
-0.00200207
-0.0138111
0.00308406
-0.00433629
0.00444042
-0.0281416
0.00862892
0.0029575
-0.0117927
-0.00196685
-0.00383944
-0.00553517
-0.00763388
-0.00215018
0.0194041
-0.00501344
-0.00885938
-0.00181837
0.0199025
-0.0071974
-0.00580575
-0.00113739
0.0272975
-0.00667658
-0.0048432
-0.000279492
0.0254981
-0.00480307
-0.00545564
0.000251433
0.0209672
-0.00468048
-0.00550915
0.00058795
0.0179356
-0.00408721
-0.00416499
0.000839352
0.0164198
-0.00458316
-0.00450965
0.000909159
0.0139357
-0.00392663
-0.00258824
0.000763401
0.0141166
-0.00481238
-0.00283333
0.000477517
0.0140538
-0.00501438
-0.00577252
-0.00226733
0.0154782
-0.00473815
-0.00499216
0.000105742
0.00947642
-0.00782271
-0.00378621
-5.33112e-05
0.00661345
-0.00641961
-0.00279362
-0.0026341
0.00511309
-0.00372031
-0.00212616
-0.00023183
0.00365626
-0.00253633
-0.00700329
-0.000287443
0.00197296
-0.000922719
-0.00165475
-0.000322512
0.000780703
-0.000324831
-0.000775123
-9.38417e-05
0.00030482
-0.000554458
-0.000168235
-3.44127e-07
4.96249e-05
-0.000170935
-1.20431e-05
1.47842e-06
-8.74706e-07
-6.59533e-07
-2.86399e-07
4.73112e-05
1.70184e-05
-6.56796e-05
-1.29726e-05
0.000369226
0.00123437
-0.0014416
-0.000474425
-0.00011208
0.00359132
-0.00321922
-0.000928109
-1.60122e-06
0.000431402
-0.000522502
-0.000100323
-1.19719e-06
-1.67967e-06
3.50425e-07
9.91452e-07
-1.5472e-06
7.26731e-08
1.13579e-07
1.81068e-08
-1.53581e-06
-2.87166e-07
2.90566e-07
5.32982e-09
-1.13206e-06
-5.11715e-07
-4.04598e-08
1.50774e-07
-8.1171e-07
-4.19982e-07
-1.2073e-07
2.69992e-07
-4.43637e-07
2.70727e-07
-2.35325e-07
-3.63477e-07
-1.2621e-06
-3.62143e-07
3.62039e-07
5.12032e-07
-6.95687e-07
-3.96266e-08
6.78903e-07
-2.6068e-07
2.92232e-07
-1.08858e-07
-6.89748e-08
5.77244e-08
-1.75575e-07
-9.10251e-09
-1.69854e-07
-4.33492e-08
6.39236e-08
1.2009e-08
-6.18402e-08
-1.09704e-09
-6.49339e-08
-1.36474e-08
1.29688e-08
3.0115e-09
-9.93018e-09
4.30664e-09
-4.937e-09
-3.96676e-12
1.35786e-09
4.12242e-10
-3.92949e-10
1.10613e-12
-6.31575e-12
1.20611e-13
2.75522e-13
-2.65251e-13
-6.88599e-14
5.64576e-13
2.44005e-13
-4.06406e-14
2.25108e-14
-1.02286e-14
1.27017e-12
2.88832e-12
-2.7235e-13
-2.57631e-12
6.52812e-12
3.65385e-12
-5.06452e-13
1.28685e-12
-4.76995e-13
1.08393e-11
1.35469e-11
-2.73289e-12
-2.59e-09
1.38422e-09
1.12367e-09
-2.50368e-10
1.91666e-09
-8.31588e-10
2.76163e-08
3.47458e-08
-2.01865e-08
2.50722e-08
3.99749e-08
-4.98384e-08
1.48731e-08
4.18268e-08
-3.28881e-08
2.53719e-08
1.98284e-08
-9.07291e-09
-4.58344e-08
7.00278e-08
1.09394e-07
-1.10508e-07
9.67606e-08
-1.03904e-07
1.49529e-08
-4.32357e-08
1.29362e-07
3.06068e-07
-3.22655e-07
1.57028e-07
1.40283e-07
-1.03269e-07
1.6079e-07
1.13791e-07
-3.88054e-08
7.15899e-07
4.91583e-07
-9.78035e-07
1.23857e-06
4.84382e-07
-9.2928e-07
4.48484e-07
9.90897e-08
3.54221e-06
-1.43971e-06
1.90664e-06
-3.58822e-06
1.83809e-06
2.18496e-06
-1.54782e-06
-5.94885e-07
1.66097e-06
5.29083e-07
-4.94011e-06
5.96616e-06
-2.45859e-06
-6.88018e-05
-1.44559e-05
1.17398e-05
-0.00026619
3.40132e-05
-9.16055e-05
2.46287e-05
-0.000306984
7.10443e-05
-0.000118263
-0.00177566
0.000383616
-0.00478118
0.00129585
0.00459356
-0.00147455
-0.0113875
0.00292357
-0.0181136
0.00559666
0.0251504
-0.0218336
-0.032603
0.00987458
-0.0255587
0.0109382
0.0213471
-0.038575
-0.0194105
0.0113778
-0.00749221
0.0099684
0.0103252
-0.0132226
-0.00558099
0.00729686
-0.00532148
0.00622607
-0.0108915
-0.00991867
0.00627277
0.00462856
-0.00688342
-0.00632835
0.00361621
-0.00205116
0.000810931
-0.00363624
-0.00988315
0.00395906
0.0138847
-0.0130317
-0.00378407
0.00290719
-0.00541784
0.00419081
-0.00769866
-0.0161397
0.00439778
0.0107414
-0.0181829
-0.00539165
0.00203958
-0.00207094
0.00228183
-0.000485223
-0.00723528
0.00143934
3.59194e-05
-0.00539227
0.000880734
0.000122385
-0.00185438
0.00039471
3.31953e-05
-0.000334658
0.00010506
3.64843e-05
4.95062e-07
-3.11547e-05
2.48076e-05
9.9353e-06
3.10497e-05
-2.46007e-05
1.33372e-05
-2.83579e-06
-4.6921e-05
2.6651e-05
-1.04133e-05
-0.00014425
4.02925e-05
0.000434966
-0.000443562
-5.90845e-05
0.000131493
-0.000378518
-0.000152381
-0.000407968
-0.00145381
-0.000505093
-0.000209152
-0.00288611
-0.00100386
0.00108985
-0.00113864
-0.000144745
-0.000547134
-0.000253928
-0.00416384
-0.00149973
-0.000698219
-0.000233539
-0.0135554
-0.00586808
0.00571026
-0.00509753
-0.000674924
-0.00211151
-0.000724474
-0.00551112
-0.0120853
-0.00338234
0.00402328
-0.0379901
-0.0145447
0.000217316
-0.0175217
-0.00585515
-0.00119822
-0.0216057
-0.00728123
0.00537926
-0.0383857
-0.0165543
0.00131716
-0.0155115
-0.00529851
-0.000347626
-0.0196149
-0.00742029
-0.000605677
-0.0221007
-0.0087381
-0.001055
-0.0248259
-0.00881176
-0.000280281
-0.0254798
-0.00916868
2.21016e-05
-0.0251562
-0.00896666
7.00822e-05
-0.0252295
-0.00930378
-0.000334754
-0.0220129
-0.00882992
-0.0015243
-0.0201401
-0.00782651
-0.00542971
-0.0155788
-0.00544932
0.00066617
-0.0347507
-0.0158646
-0.000249042
-0.0201065
-0.00673559
-0.00340057
-0.014706
-0.00497201
0.00206523
-0.0260181
-0.0122744
0.000615814
-0.0126043
-0.00401497
-8.33791e-05
-0.00528476
-0.00305412
0.00152143
-0.00838627
-0.00534975
0.000111849
-0.00194924
-0.000545104
-0.000288229
-0.000833227
-0.000331623
-0.00019442
-0.00245291
-0.00112898
4.69991e-05
-0.000654394
-0.00153267
-2.06232e-05
-0.000873932
-0.000348961
8.00656e-05
0.000178619
-0.000315686
-4.71541e-05
7.76772e-05
3.20515e-05
-0.000108293
4.04284e-05
0.000184464
3.02577e-05
4.53642e-05
3.65899e-05
1.69889e-05
-3.70642e-06
5.54983e-05
-1.10469e-05
-4.49874e-08
4.11145e-05
-6.61375e-07
-1.45297e-05
1.05199e-05
-1.88317e-05
-2.35404e-05
-1.17248e-06
-0.000323669
-3.65083e-07
-0.000132034
-0.000150344
-3.76813e-05
-0.000172626
4.50147e-05
-0.00020589
-0.000175418
0.000162091
-0.000322331
0.000112051
0.00010139
-9.79023e-05
-0.000384641
5.59925e-05
0.000168007
-3.49638e-05
-4.26025e-06
0.000241186
-0.000155753
-0.000344455
0.000309277
-0.000255185
-0.000822247
0.00081947
0.00134542
0.00440941
-0.0018438
-0.00422068
0.00232986
-0.0124827
-0.00636085
0.0116364
0.000866411
-0.00800001
-0.0146725
0.00802258
-0.00308286
0.0154829
-0.00500025
-0.00485529
-0.00213081
0.00623938
-0.00360271
-0.00192986
0.000782956
-0.00508926
-0.00815134
0.0107168
0.00105672
0.00998161
-0.00437249
-0.00304283
-0.000873751
0.0116287
-0.00254366
-0.00202462
-0.00051331
0.00636112
-0.00273845
-0.00172546
-0.00044886
0.00529465
-0.00199726
-0.00224428
-8.06001e-05
0.0042374
-0.00191261
-0.0018326
0.0011659
0.00568112
-0.00244287
-0.00464554
5.38332e-05
0.00800229
-0.0024267
-0.00179655
4.53971e-05
0.00645401
-0.00193064
-0.00235051