/*--------------------------------*- C++ -*----------------------------------*\
  =========                 |
  \\      /  F ield         | OpenFOAM: The Open Source CFD Toolbox
   \\    /   O peration     | Website:  https://openfoam.org
    \\  /    A nd           | Version:  7
     \\/     M anipulation  |
\*---------------------------------------------------------------------------*/
FoamFile
{
    version     2.0;
    format      ascii;
    class       volScalarField;
    location    "18.9";
    object      p;
}
// * * * * * * * * * * * * * * * * * * * * * * * * * * * * * * * * * * * * * //

dimensions      [1 -1 -2 0 0 0 0];

internalField   nonuniform List<scalar> 
15142
(
-2.34868
-1.18352
-0.571313
-0.697436
-0.686074
-0.689774
-0.577032
-0.559998
-0.559576
-0.571933
-0.515879
-0.456367
-0.422925
-0.45219
-0.453338
-0.465788
-0.506529
-0.48158
-0.488095
-0.543505
-0.518586
-0.522075
-0.539893
-0.479447
-0.452935
-0.481027
-0.533121
-0.565168
-0.578694
-0.448614
-0.467534
-0.472551
-0.378126
-0.163051
-0.870654
-1.24004
-1.18727
0.3629
2.65224
-1.73686
6.84534
16.3838
17.1721
77.5536
219.56
432.354
988.964
2276.74
2967.62
4303.86
5029.32
4654.27
4637.27
3111.01
2553.06
2088.61
1852.91
1470.59
1493.52
1250
1289.58
1570.75
1235.08
1300.09
1012.09
858.179
408.314
180.19
95.5914
45.106
21.5867
29.0725
40.8122
36.2604
66.7113
163.293
476.477
517.933
864.218
1050.82
2145.51
3065.16
3634.44
4586.21
5611.95
5968.92
7248.12
6600.72
6658.09
6414.89
5933.69
5929.29
6219.46
6519.66
6269.48
6651.86
5410.82
4683.2
4057.91
2910.91
2392.03
1502.18
818.228
584.478
413.161
396.46
161.585
77.0326
85.8818
65.6887
39.9097
84.1484
236.8
448.019
840.938
1358.86
2197.91
1371.38
955.425
518.584
709.225
804.426
725.648
805.499
884.778
837.947
1050.76
968.599
628.156
557.737
467.104
783.67
697.727
1687.39
1524.96
2242.33
1793.47
2283.02
2663.11
2059.1
1877.72
1135.05
668.328
438.786
192.327
84.2994
37.0107
15.3684
7.59935
12.5606
13.5126
21.1366
37.421
93.0328
163.742
109.58
54.2053
22.6055
4.06727
-2.27581
-0.357659
-0.669591
-1.3412
-2.72416
-5.29248
-13.6517
-1.31137
1.79889
15.5525
50.176
82.443
13.5537
36.2256
15.2724
5.90095
-0.223206
-2.41104
-3.85682
-5.25462
5.27598
11.5983
35.8886
-3.19007
68.6545
74.3312
284.258
241.037
511.377
429.283
759.151
430.731
771.167
631.721
742.849
11.8416
40.1139
826.548
413.771
356.245
455.645
334.997
222.521
385.413
135.659
132.05
436.429
103.855
48.9463
295.542
217.241
136.562
-6.99656
214.623
213.512
162.163
108.307
354.749
260.957
478.372
285.624
442.21
272.363
115
14.4389
2.17507
-83.0316
12.1074
-7.26216
15.6174
21.3902
14.5187
9.89609
10.8311
-8.87808
-0.350073
65.5883
183.312
240.883
91.6635
112.931
157.755
51.5573
79.0452
141.642
50.0585
92.5717
184.126
82.8367
155.148
102.843
186.77
145.106
254.572
205.594
440.738
340.912
191.766
106.226
125.062
71.0565
84.7222
48.7433
60.8723
37.0168
51.1408
32.4014
-6.33175
5.05725
-10.4238
15.3365
8.96747
44.7932
152.791
267.664
478.777
294.003
185.567
37.9053
69.0783
138.376
210.82
73.7995
49.6609
29.6769
-0.0287502
2.35731
16.5882
18.5616
27.9489
8.66248
7.85538
-1.90675
-0.485328
5.5471
-8.32829
-15.9557
-16.5455
-8.2334
-3.49362
-0.514003
5.70046
-5.05192
-14.4269
-14.2491
15.9278
16.0285
56.8689
31.8026
-39.1904
3.63557
29.7324
2.97909
-6.94654
-10.2109
-9.40835
-6.62925
-7.81766
-6.28352
-8.59588
-3.99539
-5.05537
-7.02072
-4.2918
-1.77663
-1.74007
-1.83506
-3.17135
-4.22397
-4.60622
-3.76212
-2.93749
-2.53613
-1.5975
-1.5328
-1.34331
-1.27319
-1.29479
-1.46379
-1.59181
-1.61111
-1.43854
-1.32253
-1.26902
-1.2699
-1.34402
-1.32652
-1.34053
-1.44091
-1.44847
-1.4258
-1.42929
-1.34747
-1.33819
-1.54147
-1.75842
-1.77783
-1.64405
-1.57429
-1.69894
-1.77025
-1.86998
-1.99986
-2.48208
-2.50712
-3.19127
-5.05229
-4.49173
-6.04202
-6.17988
-3.45738
-9.52936
38.4452
198.561
415.049
1327.23
2752.65
4543.38
7238.17
9003.13
9338.13
7902.62
5377.96
3868.35
3595.77
3282.54
2804.67
2301.01
2425.98
3091.91
3573.88
2835.86
2888.91
2599.61
1706.69
845.398
324.297
86.7941
76.148
31.046
30.9653
65.9937
49.3982
125.856
328.189
668.351
619.377
1816.58
2165.66
3484.26
5989.86
7261.07
10616
10377.2
11031.2
13371.3
12073.9
12531.3
12998
12704.9
12605.7
12883.1
12258.3
11717.1
12750.2
10033.8
9352.07
9083.83
5929.62
5098.82
3467.29
1723.32
1214.47
929.373
793.581
389.069
195.222
120.777
112.618
99.7263
203.257
723.394
639.539
1866.32
3055.84
3276.41
2735.23
2348.53
1650.7
2033.34
1848.25
1759.35
1913.54
1729.87
1648.98
2034.69
2011.84
1793.69
2107.78
2249.55
2550.91
2823.71
3715.24
3564.65
4001.99
3635.95
4742.39
5536.81
4116.33
4007.81
2564.23
1056.53
646.941
269.887
85.4571
30.6164
4.49612
-0.383548
7.23188
6.44816
-0.0617066
22.3829
43.188
143.57
64.5559
6.68074
0.403405
-7.3141
-4.48038
-2.32957
-2.43854
-1.63675
-1.63641
-2.39144
-2.74485
-4.37278
-6.1175
-9.78652
-6.3705
-8.23276
-6.2001
-6.34797
-4.40717
-3.786
-3.30883
-2.93188
-2.19061
-2.24549
-2.37885
-2.42785
-2.51928
-2.41269
-2.13955
-2.03023
-2.03341
-2.22314
-2.2098
-2.17766
-2.38742
-2.353
-2.24345
-2.33168
-2.23193
-2.14525
-2.41972
-2.74863
-2.766
-2.88752
-2.03956
-2.82347
-2.63012
-2.65619
-2.98186
-2.35321
-3.48745
-3.10155
-3.54243
-4.26294
-5.999
-3.65528
-4.43138
-6.61505
-3.84579
-21.355
27.5631
172.572
354.149
1547.89
3020.14
5355.55
9662.63
12650.8
14224
10837.9
7277.17
5259.2
5104.57
5000.96
4461.78
4508.74
3852.11
4170.55
5058.25
5318.79
4713.62
4493.37
4034.06
2557.34
1270.11
418.435
85.2516
73.587
71.2266
48.3718
45.934
47.0012
59.5288
41.9352
4.6541
1.80881
2.79946
4.46628
2.12253
0.54542
7.96189
3.92709
0.124805
-3.75962
-1.70549
-5.85994
-12.9745
-26.2532
-25.0725
-23.7585
-27.089
-31.6994
-23.1918
-19.9894
-25.3841
-27.8039
-24.5838
-14.0654
-40.0311
-16.1276
-0.943013
-32.7577
-35.4493
-24.3342
-34.5112
-24.3269
-31.0869
19.9329
21.8217
39.6334
68.5562
135.636
143.282
-157.381
-537.846
-503.832
-733.307
-589.867
-717.111
-667.731
-675.3
-773.816
-672.015
-872.605
-808.631
-955.904
-868.673
-897.368
-813.337
-582.309
-342.884
-191.084
-65.7944
-28.4126
-11.2533
-6.07023
-7.69977
-39.7782
-65.4318
-61.7663
-7.12654
-18.1045
-13.3518
-9.74781
-7.52413
-6.46584
-5.74504
-4.3874
-3.94316
-3.48251
-3.04637
-3.48651
-3.14151
-3.43881
-2.7926
-3.31732
-2.68685
-3.0318
-3.49341
-2.90372
-3.27899
-3.618
-2.97922
-3.1772
-3.54959
-2.89623
-3.19238
-3.44918
-3.51383
-3.5862
-3.65149
-3.24425
-3.48065
-3.88322
-3.54052
-3.70746
-4.05455
-5.12823
-6.40349
-6.66549
-8.87829
-15.2402
-5.29055
-13.455
-2.90942
-12.3051
193.861
1562.35
1849.29
6731.43
6363.57
11104.5
6937.46
8622.04
4422.07
4986.69
3499.57
2521.38
4006.05
2540.9
2411.48
4177.92
3315.67
2359.35
3885.94
2415.91
1013.07
233.574
24.0253
1.64059
19.15
20.1973
17.2823
23.9286
101.367
158.232
507.503
1173.42
1750.07
1467.83
3215.45
4657.3
8087.55
6830.6
10209.4
12384.9
15939.8
14901.7
16150.4
18341.3
16833.8
17638.5
20100.4
21092.1
20846.7
20046.1
17183.8
16556.2
17671.3
14766.2
13974.9
13411.5
9315.4
8032.95
5045.75
2808.34
1906.28
1377.13
1236.8
666.774
319.563
206.02
255.212
115.353
38.5535
14.5838
42.8109
33.7669
21.3577
37.4525
55.989
7.32579
25.2482
128.195
85.9252
21.074
7.75007
12.4807
66.4785
328.38
941.067
1200.75
652.38
509.411
565.683
719.349
461.829
436.339
346.082
310.845
545.328
499.536
523.767
559.918
602.669
900.644
897.41
1402.43
1040.03
1118.26
1566.29
1657.45
1746.31
627.173
115.418
67.4541
11.9324
-14.7357
-21.3598
-11.7943
-11.5131
-22.5473
-27.4623
-6.55452
-8.17706
-16.4931
-13.3528
-8.38556
-10.7785
-11.9702
-8.65509
-6.78898
-6.37943
-7.0216
-7.53884
-8.34482
-7.22974
-6.38898
-5.70796
-4.80615
-4.01616
-4.78368
-4.77452
-3.98964
-4.69832
-4.64997
-3.90433
-4.55572
-4.52911
-3.70322
-4.1351
-4.77118
-4.73057
-3.96754
-4.55255
-4.48786
-4.76709
-3.9101
-4.26503
-4.91565
-4.82308
-3.92105
-4.06941
-4.13777
-4.23094
-4.26796
-4.28662
-4.28772
-4.2724
-4.5193
-4.97468
-6.42032
-6.65949
-6.35456
-6.83888
-8.87729
-14.4551
-15.608
-28.5267
-28.2005
-36.7232
-16.371
395.352
234.515
840.672
2002.85
1186.23
1835.97
4216.77
2200.83
1841.48
3383.01
1952.44
1868.82
2775.98
1755.35
894.093
1178.82
1976.51
1212.9
1947.8
1116.17
1904.3
1367.02
500.977
653.606
1329.82
433.791
79.0438
5.1159
-4.35933
5.38812
13.9611
63.4965
219.032
340.372
1115.13
2379.14
1324.94
608.36
411.373
567.084
689.367
1160.9
2414.55
2775.93
8209.03
5314
7042.55
12086.3
8629.11
5634.32
3412.31
3439.36
3161.19
3215.01
5644.49
8766.81
13318.9
17175.3
13395.8
18544.7
12769.2
7988.34
4895.69
4915.44
4870.49
4858.24
8154.34
12569.1
16869.3
10223.5
8481.65
9447.09
7292.15
6796.15
7194.33
5172.26
3368.76
3243.51
3556.99
2005.47
1218.8
738.993
441.753
130.735
19.0457
-29.8907
-20.9119
-15.0521
-14.4527
-6.05788
-38.4925
-5.28087
8.73549
44.5858
45.9158
83.3197
164.635
175.922
-202.678
-654.239
-559.548
-723.781
-570.611
-567.726
-560.928
-742.027
-805.084
-914.041
-831.654
-905.16
-1007.49
-1224.22
-1822.79
-1933.77
-2242.51
-2198.41
-2131.28
-1660.68
-890.364
-537.459
-197.089
-132.604
-45.0103
-133.835
-299.594
-1454.72
-325.407
-23.0754
-15.611
-17.9032
-13.6179
-11.7244
-10.2066
-8.52826
-7.44589
-6.38295
-5.68753
-6.2842
-5.53131
-6.04061
-5.35076
-5.82532
-4.92576
-4.86497
-5.39072
-6.43574
-5.58297
-5.96574
-5.29118
-5.63759
-6.00069
-5.14698
-5.0501
-5.43704
-6.47136
-5.68906
-5.87257
-5.02976
-5.10376
-5.18634
-5.2048
-5.28608
-5.28996
-5.44759
-5.7255
-6.67803
-7.14598
-9.61861
-10.708
-9.47154
-11.3574
-10.7529
-9.4617
-15.4293
-15.2578
-26.5298
-24.3418
-281.611
-31.7709
-18.1621
265.329
-412.419
-1257.24
-1080.7
-1613.69
-342.231
-787.344
300.631
-248.932
852.454
269.128
-2.38395
-516.368
80.8948
-305.11
343.577
-167.456
-317.871
503.678
95.1609
15.1067
-336.419
-149.138
-148.386
164.688
23.445
-0.968293
-19.728
-4.24127
4.58189
35.1487
154.698
-42.4671
-39.2186
-12.1851
-9.54808
-6.32338
-12.5437
-69.813
-116.565
-247.651
-506.978
-298.299
-118.105
-26.2045
-12.9488
-23.2657
-27.7456
-86.5568
-172.758
-320.484
68.6862
184.653
167.821
237.475
295.638
619.241
1015.92
750.816
1021.71
1651.76
1050.39
1055.72
669.763
473.721
714.678
474.044
224.455
163.141
125.734
85.1568
52.1431
40.7592
14.2586
8.0435
-10.5722
-34.4346
-66.1105
7.75343
-23.3972
-23.47
-28.3238
-24.0913
-25.1447
-26.0933
-54.3135
-4.48611
-16.7615
-21.6603
-32.1384
-64.7589
-43.4583
-60.9733
-298.207
-314.68
-453.189
-398.384
-2771.13
-3278.05
-2821.29
-2605.08
-1603.8
-1551.37
-2573.34
-2215
-1244.05
-852.28
-425.89
-258.775
-101.132
-38.614
-65.0801
-61.1065
-46.4919
-45.6227
-36.8512
-33.8921
-30.1822
-24.9722
-21.4944
-18.3967
-15.0555
-12.4224
-10.4157
-8.56867
-7.05422
-7.64686
-8.53976
-8.24215
-6.77864
-6.97655
-6.00983
-6.08081
-6.0955
-6.18116
-6.21644
-6.48659
-7.92926
-8.44352
-10.8171
-12.9715
-12.7209
-14.871
-9.84299
-24.9786
-18.4733
-30.6805
-253.663
-216.129
-772.002
-1423.23
-2027.39
-1743.36
-1336.2
-1092.36
-752.898
-756.067
-948.508
-783.859
-453.842
-475.787
-409.981
-436.261
-452.283
-754.588
-1189.02
-641.589
-202.193
4.96279
-73.1704
-51.4139
-56.3323
-168.267
-275.104
-610.604
-1001.03
-584.143
-871.428
-395.603
-275.889
1769.82
3531.2
810.774
-736.979
-1080.94
-1452.45
-1766.22
-2256.48
-2326.08
-1564.87
-1376.2
410.403
1614.28
582.566
1550.84
-90.2948
1432.05
5409.9
2944.03
1421.92
-611.127
-1630.81
-2116.65
-2691.24
-2968.7
-3183.89
-3229.07
-2349.64
-1874.18
-697.586
1335.66
2917.55
3316.11
5704.03
7968.75
7816.98
6146.19
5301.04
3398.41
2097.01
1184.9
723.317
454.275
166.847
138.269
25.7729
-15.6575
-55.6184
1.28004
-19.8552
-16.729
-18.0681
1.71725
-21.8212
3.33701
-11.4728
-96.9348
-234.659
-483.078
-1594.34
-1607.96
-1619.02
-1998.82
-1927.41
-2319.61
-2296.76
-2307.64
-1820.15
-1247.4
-697.702
-244.134
-565.886
-1000.73
-2504.33
-971.506
-132.386
-32.6008
-28.482
-22.1182
-19.7616
-18.6636
-17.2937
-14.9686
-13.1236
-11.8467
-9.67471
-8.02937
-6.83029
-7.71069
-8.83498
-8.64801
-7.02535
-7.7736
-6.5353
-5.45166
-5.93245
-6.42864
-7.09066
-8.55916
-10.0772
-10.5065
-8.61507
-8.7533
-7.06764
-7.16349
-7.22401
-7.47647
-9.40711
-10.1339
-12.1525
-12.4337
-15.077
-18.8973
-15.9912
-18.3101
-28.2403
-14.8682
-122.274
-432.377
-1081.79
-2447.46
-485.921
-1643.01
-1774.63
-2398.35
-1719.53
-1565.46
-1305.36
-1085.24
-1621.45
-1831.36
-1236.86
-1527.17
-885.457
-838.627
-753.714
-893.053
-1525.18
-1340.2
-1708.85
-1417.28
-1074.03
-1309.51
-556.938
-213.57
-27.895
-123.449
-75.7156
-111.071
-342.238
-636.399
-893.861
-440.279
-153.479
-344.202
-662.181
-1343.35
-1883.81
-1209.05
-1848.78
-1550.78
-2183.59
-1259.8
-467.094
-324.129
-379.347
-643.763
-2713.79
-3189.3
-3564.21
-3918.57
-3513.03
-3967.63
-4146.75
-4540.29
-4997.29
-4007.76
-4413.55
-4099.56
-1187.91
-1328.74
-1376.98
-4301.18
-3377.33
-3321.4
-2554.68
-1881.22
-640.467
1287.14
4726.14
4653.56
7801.68
13094.2
18067.3
9194.91
7122.81
6953.73
6663.78
4784.11
3090.94
3124.34
3426.43
1899.69
1062.8
608.638
347.245
93.4244
-12.6391
-4.19638
-13.3596
-3.15799
-1.90073
-13.3929
2.70384
85.923
150.467
316.236
334.873
-309.477
-648.934
-619.367
-759.251
-733.671
-690.532
-654.776
-946.758
-807.413
-742.425
-1077.89
-1463.86
-1817.57
-2394.7
-1978.4
-2416.28
-2070.88
-2151.67
-2111.88
-1916.84
-1937.42
-1627.2
-1384.53
-1140.78
-901.879
-608.72
-318.483
-73.077
-305.086
-572.759
-968.992
-521.645
-23.5361
-3.70305
-21.9156
-17.7529
-16.7625
-14.4274
-13.1835
-11.9625
-10.1123
-8.53726
-7.17642
-6.01159
-6.66709
-5.16164
-2.09015
-1.09593
-0.956128
-0.820387
-0.732563
-0.6583
-0.607147
-0.640275
-0.760145
-0.938043
-0.839913
-0.966096
-1.48248
-1.71701
-1.69495
-1.40058
-1.77256
-2.01568
-2.06919
-2.7622
-3.03145
-3.56632
-4.14924
-5.50283
-5.33399
-4.84272
-4.80542
-5.44818
-6.28996
-7.43743
-8.51616
-9.96759
-10.0715
-11.6886
-12.9189
-14.894
-16.4974
-18.0629
-23.9026
-23.5395
-53.8203
-670.004
-492.482
-306.501
-31.5656
-245.314
-536.006
-1026.54
-1787.88
-1457.65
-2134.41
-2575.74
-2406.73
-2321.24
-2143.16
-2019.54
-1919.98
-1501.75
-1682.34
-1148.54
-286.68
-348.162
-272.093
-1487.67
-1942.33
-1756.66
-1221.45
-1296.36
-1295.78
-1343.96
-1482.42
-1992.01
-2386.87
-2583.23
-3123.89
-3462.61
-3891.83
-3732.16
-3242.01
-2476.45
-1505.1
-884.037
-1257.39
-1891.46
-3373.42
-1164.49
-184.193
-26.2905
-32.4059
-26.0505
-24.8951
-22.5269
-20.8258
-19.4491
-17.778
-15.3526
-13.1289
-11.2343
-9.21846
-9.25465
-9.49524
-10.6136
-12.2784
-10.6509
-11.6609
-9.42439
-8.71121
-8.70189
-9.54101
-11.0321
-9.14689
-11.7576
-12.5096
-12.7719
-10.7003
-10.9516
-8.91678
-9.01442
-10.9734
-11.3165
-13.1743
-14.4426
-16.0933
-17.0066
-17.1854
-22.1507
-35.5089
-17.5254
-16.5839
-22.2802
-27.0931
-53.732
-133.765
-467.09
-533.801
-3578.77
-3804.73
-2995.07
-2539.81
-2329.62
-1981.12
-1823.24
-1619.23
-1673.64
-1810.8
-1357.13
-1232.33
-943.459
-762.202
-444.478
-300.362
-75.3452
-221.24
-393.618
-46.5817
-490.604
-721.952
-823.914
-1030.36
-1225.02
-1392.17
-1419.76
-1493.66
-1819.8
-2079.9
-2988.04
-2733.64
-2557.94
-2287.63
-717.444
-651.004
-515.943
-490.038
-299.597
-370.339
-313.606
-167.69
-138.91
-97.7534
-7.19815
-93.2517
-71.6002
-733.813
-1414.55
-1663.57
-844.307
-499.635
-92.9183
-666.864
-1131.48
-318.033
-744.776
-1188.67
-2125.43
-2722.53
-2526.54
-3629.47
-2717.03
-3267.7
-4621.76
-4758.17
-3574.87
-3505.88
-4533.85
-5188.67
-5776.96
-6074.77
-5654.5
-5071.47
-1592.25
-1280.89
-1186.13
-876.418
-821.632
-796.651
-1669.07
-5376.39
-4115.51
-4108.42
-5032.73
-5983.7
-6823.1
-7064.22
-6716.94
-6272.17
-2173.26
-2217.05
-2669.01
-6955.05
-6356.09
-6363.61
-5874.61
-5763.81
-6236.31
-4943.8
-5044.11
-5013.47
-4450.32
-4232.55
-3238.73
-3094.15
-2338.67
-1612.65
-117.68
1219.79
4868.47
2694.77
2532.2
4773.74
8174.58
12622.2
16786.2
7270.62
7596.2
4717.92
5437.51
3958.13
2628.81
1467.07
828.685
363.802
147.305
57.0662
16.0913
-3.56356
-2.558
-3.10819
-5.33645
1.49359
-12.6251
-16.8511
-23.4215
-43.9322
-80.6462
-171.27
-435.246
-600.145
-671.966
-1114.45
-1269.47
-1206.81
-1776.75
-2050.48
-2370.93
-2144.63
-1739.55
-1374.76
-1435.28
-1929.12
-1678.27
-1890.21
-2345.09
-3222.99
-3960.02
-3670.84
-4222.71
-3831.92
-3968.61
-3082.26
-2537.84
-2318.4
-1556.68
-1094.12
-1484.79
-2249.69
-3962.94
-1676.66
-477.785
-25.4845
-24.0981
-10.3555
-28.2698
-26.7768
-27.3497
-23.998
-22.1387
-19.9224
-16.8769
-14.6317
-16.7181
-16.3987
-13.8727
-15.4753
-15.5077
-17.0862
-19.9514
-16.3046
-13.4397
-14.3782
-15.9416
-15.1971
-15.5193
-15.7561
-13.0417
-13.0222
-15.5043
-15.0078
-17.0268
-19.1117
-25.432
-20.7898
-14.9801
-13.4274
-22.6121
-182.342
-325.323
-395.263
-1723.38
-1914.94
-2307.85
-3675.67
-3493.74
-4094.01
-2955.3
-2379.37
-2371.99
-2074.48
-1852
-1614.58
-1706.54
-1244.12
-1583.52
-1361.25
-1439.21
-2061.22
-1990.64
-2297.4
-2312.6
-2116.51
-2788.31
-2622.44
-3584.86
-3599.01
-2874.19
-3068.01
-3740.06
-2934.52
-1811.26
-719.2
-246.286
-64.4047
-184.644
-369.011
-1265.99
-2618.86
-2945.5
-3509.49
-4684.27
-4314.33
-4047.78
-4345.79
-3976.22
-3549.42
-3703.98
-2994.92
-3009.34
-2411.1
-1968.18
-1539.17
-1571.54
-524.002
-1046.52
-1583.79
-2734.33
-3587.16
-1105.84
-720.365
-317.796
-289.594
-236.059
-103.261
-97.9713
-81.083
-139.146
-62.7664
-15.5199
-8.19952
-22.7247
-25.9839
-51.8163
-1.64309
-35.7573
-64.6223
7.50867
-57.6025
-347.288
-1951.7
-3021.13
-7748.96
-7589.58
-7186.55
-6553.16
-6249.04
-7016.55
-7195.77
-8352.73
-8242.93
-8594.59
-8603.88
-8954.2
-8945.11
-8481.53
-6820.97
-6911.29
-7868.92
-2803.61
-3836.61
-9287.72
-9436.7
-8733.55
-8423.29
-7743.48
-8268.61
-7583.98
-7173.97
-5684.43
-5797.82
-6625.98
-2390.95
-3248.86
-2934.08
-3645.11
-8710.09
-8628.91
-8067.06
-7550.97
-7299.19
-7476.29
-2983.75
-2246.28
-2476.8
-1453.37
-615.11
-228.373
-1229.38
-1634.93
-1954.43
-2136.11
-2045.92
-6151.35
-6245.1
-4901.19
-4812.99
-4267.93
-3748.71
-4267.04
-3912.86
-2961.39
-2689.67
-2064.23
-1238.23
354.683
2446.33
2264.59
4282.25
7773.29
11053
6013.83
3676.92
2151.18
970.995
329.982
281.283
640.481
1495.94
2614.57
5633.58
1714.61
1471.3
2340.02
4509.6
4014.84
4447.02
2999.94
1978.44
344.931
1491.48
3132.14
6049.33
4431.83
1275.06
517.279
246.474
91.7599
25.1128
2.82517
-3.09647
-4.00422
-0.370388
-2.90895
-6.64879
-8.09849
-0.78781
46.4541
20.074
-9.54483
-30.5391
-114.336
-83.3135
-147.1
-192.379
-253.796
-241.551
-748.417
-1268.62
-1132.13
-1025.17
-1692.48
-1725.61
-1456.8
-1427.04
-1722.87
-1954.72
-1948.07
-2806.86
-3435.82
-3520.66
-3435.45
-3451.26
-2447.07
-2898.25
-3229.8
-3160.9
-2745.64
-2748
-2855.77
-2380.29
-1693.92
-1255.35
-1342.72
-1851.9
-3078.97
-1287.84
-779.183
-257.905
-99.5319
-14.8217
-36.7875
-37.0344
-32.5089
-31.6234
-30.1619
-25.3246
-22.4749
-20.1646
-17.3203
-18.7091
-20.388
-23.5824
-25.7631
-24.8283
-20.7704
-17.155
-18.0973
-18.8957
-21.4662
-18.4824
-18.6436
-18.7947
-18.4104
-21.5853
-18.7646
-20.3655
-22.1104
-25.7191
-146.564
-123.09
-394.041
-1422.04
-3060.24
-3951.35
-3388.49
-4808.16
-4743.36
-4015.33
-4814.85
-4320.48
-3844.38
-3862.91
-3581.03
-3590.85
-2993.16
-3431.98
-3024.69
-2684.42
-1971.91
-2091.32
-1729.93
-836.723
-647.581
-1394.75
-2133.55
-3147.2
-4130.81
-2807.38
-1873.13
-2407.86
-3489.96
-4641.58
-5907.66
-4232.42
-3071.38
-1738.74
-2951.43
-2564.92
-2808.07
-3621.77
-2154.6
-3615.94
-4874.25
-6273.45
-6541.71
-4811.61
-3676.33
-2345.51
-3618.02
-3218.85
-3035.48
-2640.94
-2957.97
-2945.32
-3036.98
-3139.82
-3364.7
-3260.85
-3385.69
-3781.66
-4045.52
-4032.33
-4276.87
-4426.68
-5069.01
-5044.05
-5213.58
-4301.39
-3932.03
-2099.06
-3342.62
-652.299
-651.063
-1158.83
-4792.23
-1104.53
-1632.92
-1193.4
-1324.38
-4817.1
-4878.64
-4698.88
-4481.87
-3818.57
-3530.75
-3911.98
-3286.45
-3337.97
-2339.82
-3632.45
-4814.21
-6263.34
-2206.38
-1928.54
-2304.93
-1530.78
-1181.57
-704.422
-1166.51
-1686.08
-4540.28
-3288.2
-4079.4
-3890
-3460.77
-3555.36
-2877.99
-4030.5
-2795.37
-4325.39
-5418.12
-5528.47
-5084.15
-4574.54
-3201.99
-3710.29
-1184.95
-1024.52
-430.201
-716.911
-1003.88
-2970.36
-4423.83
-4707.22
-5780.92
-6279.67
-5964.25
-5950.04
-6733.03
-6814.99
-7179.79
-3028.26
-2484.24
-2199.94
-1984.6
-2436.8
-2014.55
-5170.08
-5493.2
-5420.46
-5839.11
-6332.61
-6921.87
-6842.82
-6958.29
-7382.88
-7108.91
-2754.82
-2646.27
-2489.64
-2347.48
-5583.77
-5478.95
-5916.22
-6575.66
-6406.5
-5731.92
-5944.08
-6674.17
-7233.33
-6972.68
-2723.68
-2598.27
-2324.46
-1898.62
-5292.22
-4624.2
-4400.34
-4573.73
-4770.55
-4235.24
-2893.19
-3525.1
-3717.42
-2802.63
-2558.88
-3307.74
-3254.21
-2651.05
-2843.92
-3051.2
-2428.3
-1792.22
-1741.84
-2595.01
-2289.37
-1949.74
-1939.96
-1087.95
-522.923
-308.311
-265.727
-133.679
-83.536
-73.2761
-78.0196
-67.4754
-61.7718
-50.9791
-46.1375
-37.6447
-32.7433
-27.2239
-27.9284
-29.7433
-34.8149
-30.5929
-30.9253
-25.6068
-25.8171
-21.7796
-21.8459
-25.6391
-25.614
-29.5873
-28.6897
-35.1272
-44.1247
-212.441
-465.328
-1590.12
-1858.42
-3139.09
-3637.77
-4315.69
-4003.47
-3930.04
-4805.23
-4291.71
-4595.81
-4421.57
-4703.89
-3357.77
-3459.01
-3740.69
-3099.19
-3935.43
-3692.33
-3464.71
-3860.32
-3019.86
-4113.55
-4410.38
-4625.39
-4599.6
-1449.4
-1856.28
-1436.98
-4530.33
-3579.53
-2757.77
-3869.1
-4373.32
-4746.89
-5035.73
-5246.05
-5408.42
-5071.29
-4932.35
-4407.59
-3712.33
-2618.36
-2991.9
-2303.15
-2975.17
-2609.69
-2428.64
-2602.46
-2222.15
-1861.19
-1395.95
-1247.03
-1581.92
-1739.89
-1198.4
-935.859
-799.646
-673.364
-327.97
-316.475
-203.121
-14.6018
-19.4608
-84.6397
-87.7824
-82.8736
-72.2302
-65.2612
-55.0671
-48.4518
-40.3848
-37.4432
-35.6759
-35.2412
-30.9527
-30.0647
-33.4622
-30.8872
-17.3035
-43.4782
-156.805
-301.735
-1056.07
-929.133
-1392.16
-2616.97
-2402
-2410.21
-3620.34
-3274.96
-3331.6
-3057.03
-3617.97
-4083.96
-3409.06
-3605.4
-3676.01
-3308.28
-3225.45
-3147.82
-3243.57
-2680.08
-3171.04
-3181.9
-2645.45
-2438.96
-3359.85
-3530.04
-4087.31
-4109.81
-4300.95
-1933.04
-1743.08
-1445.98
-1389.72
-3247.38
-3576.16
-3390.88
-3664.03
-3604.27
-3928.27
-4393.02
-4574.49
-4184.35
-4133.84
-4318.3
-1803.84
-1590.23
-1363.95
-3663.18
-3198.9
-2336.24
-2395.73
-2579.86
-1675.42
-2399.95
-2258.49
-1705.28
-2057.94
-1623.32
-1313.12
-1133.68
-1480.9
-1381.61
-1447.11
-981.916
-889.9
-817.874
-598.574
-621.488
-304.404
-50.7871
-253.362
-166.263
-159.625
-132.444
-99.9643
-92.1675
-75.6918
-62.5527
-55.8956
-48.2219
-42.6721
-41.6055
-38.3375
-39.2101
-24.1354
-111.563
-227.79
-459.643
-760.1
-956.162
-1303.19
-2397.82
-1959.93
-2138.54
-2093.19
-2859.48
-3386.29
-3330.79
-3414.52
-3994.6
-3607.63
-2941.37
-3135.05
-3325.11
-2700.72
-2576.37
-2891.86
-2802.05
-2634.87
-2295.26
-3053.84
-2988.04
-2830.16
-3166.16
-3218.14
-3223.89
-3203.93
-3315.14
-3183.57
-3638.55
-3445.98
-2960.34
-2282.11
-2440.21
-2652.69
-1375.27
-1685.26
-1726.05
-1446.46
-1986.22
-1774.3
-1415.97
-1260.21
-1689.5
-1486.3
-871.321
-610.39
-807.679
-359.407
-475.625
-567.293
-423.62
-606.229
-599.035
-579.857
-467.289
-284.442
-284.753
-179.832
37.6423
-62.3165
-70.5303
-74.8976
-70.3255
-57.6279
-47.6212
-41.0796
-42.3458
-48.5061
-136.71
-185.232
-278.211
-560.229
-744.695
-817.269
-1038.72
-1158.39
-1737.9
-2389.71
-2148.29
-2766.85
-3021.17
-3308.62
-2759.33
-2799.55
-3179.65
-2811.23
-1972.9
-1629.39
-1850.34
-2542.36
-2473.14
-2222.53
-1751.26
-2299.21
-2258.39
-2324.27
-2591.77
-1156.4
-1690.75
-1368.99
-1273.13
-2066.62
-1970.43
-1978.83
-2308.2
-2607.24
-2654.14
-2625.26
-2665.06
-2334.69
-2425.28
-2596.53
-3078.95
-2971.52
-2283.19
-2382.99
-2572.88
-1695.1
-1607.92
-1509.27
-1692.07
-2000.6
-1766.89
-1580.94
-1453.98
-1780.16
-1655.61
-1088.1
-593.208
-358.65
-510.36
-677.431
-670.124
-638.437
-806.685
-756.17
-736.387
-812.143
-711.126
-510.688
-336.82
-263.595
-195.5
-159.466
-41.8851
-30.6016
-26.9693
-52.8914
-116.759
-469.507
-370.28
-577.76
-520.594
-733.187
-563.97
-537.67
-791.18
-580.055
-687.846
-2816.99
-2755.76
-3031.1
-2891.08
-2584.63
-2441.17
-2048.06
-1858.25
-1661.84
-1482.81
-1554.8
-2125.83
-2097.16
-2084.87
-1623.44
-1374.97
-1620.7
-1752.7
-1843.96
-2073.57
-1990.68
-1955.59
-2221.45
-2520
-1980.61
-2118.43
-2215.91
-1658.37
-1916.85
-1445.79
-1399.26
-1386.61
-1162.94
-1418.9
-1008.48
-1265.84
-1299.32
-1252.96
-1300.87
-1316.47
-1600.72
-753.174
-902.963
-568.005
-404.677
-531.904
-488.774
-634.03
-705.224
-779.361
-910.391
-1326.63
-1202.21
-1232.04
-1372.91
-1603
-213.941
-317.055
-519.599
-547.334
-567.583
-593.636
-578.593
-1338.41
-1928.07
-1811.21
-1828.3
-1839.25
-2189.91
-646.448
-610.284
-2291.42
-2303.68
-1880.18
-2018.85
-1770.75
-1487.03
-1352.91
-1591.31
-1489.03
-1537.59
-1756.27
-1865.9
-1645.12
-1954.94
-1619.87
-1553.98
-1800.86
-1756.46
-1707.5
-1964.21
-1544.68
-1626.56
-1292.89
-1570.41
-1178.82
-1659.38
-1335.3
-1403.14
-1114.04
-1156.66
-1130.63
-1032.17
-909.873
-1015.59
-748.27
-612.596
-478.195
-592.563
-551.265
-787.109
-780.021
-1178.05
-1142.03
-1089.23
-1195.7
-1363.47
-1588.53
-1850.29
-1793.57
-1945.93
-568.353
-531.001
-400.152
-442.029
-512.273
-701.646
-1239.79
-1576.25
-1603.11
-754.652
-987.337
-1309.39
-1610.29
-1400.45
-1109.44
-1550.77
-1321.98
-1214.95
-1368.82
-1593.37
-1300.29
-1480.85
-1368.71
-1455.24
-1569.02
-1481.32
-1144.84
-1818.8
-941.164
-1857.65
-1521.22
-1254.88
-1446.08
-1135.79
-1163.16
-1260.08
-794.458
-1405.68
-1150.9
-707.094
-705.66
-651.429
-679.885
-862.237
-697.945
-1081.97
-977.886
-1519.02
-1085.68
-1165.26
-1453.23
-1334.31
-1540.55
-1381.18
-866.298
-1568.26
-964.783
-928.974
-972.505
-780.388
-707.21
-849.665
-918.777
-880.26
-1152.78
-588.38
-709.735
-916.143
-845.41
-727.057
-942.317
-591.974
-808.23
-1076.5
-880.367
-982.4
-925.019
-965.159
-1367.37
-971.615
-980.772
-1006.84
-1022.1
-893.97
-835.229
-986.12
-653.881
-709.887
-810.667
-782.872
-695.212
-938.076
-727.898
-879.611
-1081.78
-602.958
-645.817
-654.272
-774.978
-878.104
-1055.22
-1351.77
-1242.54
-1406.31
-1309.73
-1328.31
-690.77
-1002.84
-1068.81
-1075.93
-750.321
-790.897
-776.815
-697.706
-672.253
-718.183
-687.35
-780.086
-691.401
-808.709
-748.388
-829.127
-947.16
-689.545
-1311.34
-989.876
-965.743
-904.996
-932.77
-810.424
-793.516
-660.402
-699.641
-759.787
-608.093
-753.236
-856.389
-941.556
-749.593
-798.371
-707.072
-643.747
-683.77
-616.354
-701.268
-863.322
-924.719
-905.652
-791.94
-1299.71
-464.807
-379.25
-1006.9
-745.904
-742.535
-724.385
-660.093
-662.466
-681.476
-683.279
-692.495
-704.297
-721.17
-705.647
-773.96
-922.409
-547.094
-1272.38
-948.498
-931.093
-867.564
-885.47
-788.08
-781.874
-643.649
-688.471
-763.949
-542.45
-533.293
-698.669
-591.967
-892.031
-866.365
-904.804
-922.154
-898.282
-735.521
-1247.53
-1275.52
-402.297
-1023.29
-826.678
-806.332
-795.093
-739.811
-748.272
-764.534
-762.688
-750.588
-796.67
-779.838
-759.869
-823.087
-960.09
-471.943
-1288.83
-943.293
-956.376
-853.535
-902.727
-838.876
-865.956
-606.472
-659.542
-829.674
-1021.57
-627.859
-801.508
-710.446
-995.65
-892.766
-761.17
-1013.52
-1186.06
-1469.5
-1144.17
-1548.64
-1355.51
-574.158
-1143.28
-992.156
-987.497
-990.435
-952.188
-969.365
-978.249
-981.005
-956.489
-999.757
-963.448
-923.485
-961.903
-1067.92
-513.39
-1311.97
-1015.54
-1036.91
-926.051
-1015.78
-935.214
-1086.78
-775.926
-854.283
-794.12
-1302.3
-815.034
-955.734
-867.225
-1178.53
-1480.22
-1505.14
-1819.08
-1348.59
-860.439
-1382.2
-1292.72
-1307.84
-1317.95
-1298.81
-1331.38
-1345.92
-1341.71
-1301.45
-1347.31
-1293.07
-1235.25
-1250.66
-1303.31
-698.551
-1449.88
-1198.04
-1195.01
-1051.29
-1200.16
-1058.96
-1435.65
-773.251
-1002.48
-1498.63
-1770.08
-1174.29
-1196.09
-1137.65
-1591.89
-1918.83
-1991.25
-2251.73
-1949.6
-2260.64
-1756.86
-1719.5
-1760.9
-1778.28
-1777.02
-1830.97
-1829.09
-1836.25
-1793.97
-1829.67
-1766
-1689.95
-1669.69
-1680.66
-1082.74
-1700.37
-1501.71
-1451.49
-1295.87
-1441.04
-1296.86
-1836.57
-2216.06
-1322.42
-1667.34
-2165.91
-1666.93
-1653.74
-2248.3
-2208.23
-2493.37
-2584.44
-2783.49
-2677.29
-2892.4
-2901.6
-2264.44
-2329.05
-2349.98
-2362.16
-2441.32
-2452.29
-2455.23
-2392.57
-2433.41
-2362.25
-2281.05
-2244.09
-2224.71
-1692.28
-2134.43
-1974.91
-1879.91
-1714.12
-1823.4
-1608.27
-2306.29
-2486.71
-1830.13
-2395.17
-2555.99
-2303.29
-2922.64
-2873.13
-2928.25
-3158.15
-3263.86
-3471.98
-3421.66
-3595.62
-3614.27
-3705.61
-2986.54
-3015.45
-3035.53
-3128.62
-3119.96
-3144.75
-3092.84
-3132.31
-3063.29
-2981.21
-2931.59
-2844.99
-2474.69
-2693.23
-2610.58
-2483.4
-2352.19
-2407.8
-3110.65
-3020.35
-3152.63
-2924.72
-2958.96
-3020.92
-3683.97
-3618.27
-3581.96
-3695.67
-3883.96
-3994.6
-4179.68
-4203.98
-4351.84
-4372.91
-4469.39
-4539.27
-3752.8
-3779.19
-3884.46
-3900.71
-3929.6
-3855.37
-3908.89
-3831.96
-3742.4
-3684.36
-3565.57
-3349.06
-3391.83
-3316.25
-3183.69
-3080.1
-3895.22
-3867.51
-3805.78
-3854.47
-3694.5
-3658.48
-4500.04
-4418.16
-4355.46
-4319.21
-4479.08
-4654.71
-4785.2
-4986.35
-5043.32
-5168.06
-5211.43
-5302.63
-5410.81
-5477.51
-4600.62
-4693.31
-4667.61
-4730.42
-4693.7
-4755.67
-4637.7
-4533.59
-4511.15
-4360.48
-4185.78
-4115.68
-4082.06
-3948.45
-4804.65
-4740.19
-4663.02
-4614.26
-4639.98
-4554.55
-5536.7
-5387.75
-5266.18
-5099.08
-5149.59
-5349.51
-5438.75
-5612.08
-5826.7
-5989
-6039.53
-6125.08
-6240.55
-6398.59
-6372.18
-6632.98
-6467
-5548.28
-5639.01
-5624.85
-5741.29
-5508.72
-5373.82
-5508.28
-5290.88
-5091.07
-4937.85
-4941.2
-5972.72
-5687.73
-5735.96
-5582.71
-5510.93
-5482.67
-6164.22
-6636.54
-6379.98
-6140.06
-5734.5
-6148.84
-6367
-6108.36
-6412.44
-6755.44
-7057.82
-6693.49
-6949
-7250.92
-7496.67
-6975.12
-7512.04
-7599.84
-7824.86
-7367.98
-6634.82
-6859.23
-6552.63
-6392.23
-6641.99
-6358.57
-6098.34
-5822.39
-6994.51
-6854.86
-6289.62
-6881.18
-6617.03
-6343.74
-6616.22
-7549.33
-7180.58
-7216.58
-7371.97
-6858.8
-7146.13
-6892.64
-6995.66
-7372.53
-6908.34
-7646.23
-7544.94
-7558.66
-7947.13
-7119.05
-8048.98
-7896.96
-7908.66
-8153.35
-8303.95
-7396.06
-6768.56
-7392.33
-7944.76
-8919.75
-8954.87
-9079.77
-9108.05
-9121.27
-8183.47
-8129.01
-8164.23
-8448.95
-7439.3
-7698.74
-7792.28
-7600.24
-7438.59
-7163.26
-7402.42
-7747.8
-7680.18
-7810.13
-7559.19
-7336.7
-7372.76
-7585.93
-8538.15
-8613.2
-8336.47
-8375.68
-8308.29
-7957.8
-7976.81
-8089.19
-8253.29
-8588.79
-8666.2
-8595.08
-8909.51
-8893.13
-8860.57
-9783.88
-9867.66
-9963.77
-9953.23
-9984.17
-10132.1
-10062.7
-10060.7
-9180.1
-9162.29
-8954.28
-9184.43
-8866.43
-8894.08