/*--------------------------------*- C++ -*----------------------------------*\
  =========                 |
  \\      /  F ield         | OpenFOAM: The Open Source CFD Toolbox
   \\    /   O peration     | Website:  https://openfoam.org
    \\  /    A nd           | Version:  7
     \\/     M anipulation  |
\*---------------------------------------------------------------------------*/
FoamFile
{
    version     2.0;
    format      ascii;
    class       volScalarField;
    location    "18.9";
    object      p_rgh;
}
// * * * * * * * * * * * * * * * * * * * * * * * * * * * * * * * * * * * * * //

dimensions      [1 -1 -2 0 0 0 0];

internalField   nonuniform List<scalar> 
15142
(
-1.21565
-0.792292
-0.168167
-0.31297
-0.316773
-0.300546
-0.218034
-0.204735
-0.179165
-0.118606
-0.0151161
-0.0241821
-0.038624
-0.0856718
-0.096042
-0.10271
-0.118554
-0.108731
-0.109542
-0.142173
-0.145373
-0.148371
-0.152969
-0.121138
-0.0889138
-0.081703
-0.0785873
-0.0843184
-0.124693
0.022693
0.0355123
0.054956
0.119429
0.37683
-0.2691
-0.499185
-0.24708
1.5623
4.16609
0.349441
10.3274
21.5787
25.1055
93.2727
245.23
473.155
1061.42
2392.23
3134.76
4521.29
5291.76
4921.71
4880.53
3290.9
2646.05
2151.07
1977.95
1550.11
1556.39
1360.12
1405.9
1697.95
1348.17
1410.99
1123.87
919.917
441.047
196.954
105.884
51.9302
25.3769
31.0709
42.9717
40.5516
74.194
176.695
498.904
549.63
923.773
1128.38
2254.4
3245.74
3861.44
4868.06
5879.89
6268.37
7556.88
6907.87
6968.37
6728.65
6250.49
6245.78
6531.81
6828.75
6573.81
6957.67
5689.71
4939.71
4290.76
3097.69
2547.23
1605.8
870.143
613.366
436.232
431.501
180.559
86.425
90.5523
68.503
46.8249
97.3079
261.206
490.642
904.652
1453.16
2308.94
1457.68
1003.13
560.385
765.132
880.1
809.529
879.638
959.774
905.569
1147.3
1066.99
726.582
659.572
555.819
844.075
765.572
1827.25
1683.31
2372.01
1903.55
2440.92
2829.33
2200.4
1977.88
1204
712.578
467.533
209.47
92.453
41.2894
17.8569
9.45488
13.9486
14.5534
22.0439
38.5687
95.2447
168.331
112.835
55.8647
23.6291
4.92264
-1.59753
0.150525
-0.248603
-0.992014
-2.36002
-4.90419
-12.9055
-0.648553
3.02093
17.9142
57.7821
93.6494
18.6756
39.0806
16.9161
6.89949
0.444878
-1.62114
-3.277
-4.83002
6.05964
12.8086
38.0152
2.67345
74.8167
78.7118
298.624
267.151
539.782
451.363
810.978
510.525
835.011
666.169
795.72
94.4802
105.036
863.612
469.862
402.195
482.946
379.128
263.405
407.674
175.14
170.465
455.741
138.758
89.4858
317.319
229.773
163.653
29.5634
234.053
226.22
189.995
140.385
377.802
277.775
507.727
321.672
478.805
299.84
129.998
18.628
7.49861
-76.0342
15.532
-3.87043
18.6752
23.5422
16.2261
11.517
12.3078
-8.1334
1.23912
71.0628
192.925
254.297
97.6419
120.315
168.141
55.3244
84.0785
149.744
53.6504
98.5419
195.063
87.8139
166.424
108.271
199.742
151.938
271.614
215.127
464.767
356.538
200.466
113.468
130.625
76.1917
88.5255
52.0199
63.9494
39.7173
54.142
34.8632
-3.79587
7.87067
-7.39503
20.0118
15.2894
55.2355
164.866
281.029
500.556
308.37
199.955
51.3743
82.1356
149.099
220.337
78.4528
56.4329
37.8002
6.97565
7.83537
20.0223
20.8192
29.5051
9.55099
9.1594
-0.297772
0.64419
6.22907
-7.89637
-15.4293
-15.8518
-7.70325
-3.05694
-0.0482338
7.28004
-1.96364
-7.55845
-0.551987
27.5558
23.785
82.8693
90.0114
52.4574
47.7671
48.2296
6.17564
-1.27152
-1.26139
-6.20162
-5.28869
-7.03671
-5.77161
-8.17207
-3.59759
-4.62497
-6.4999
-3.69665
-1.2875
-1.32207
-1.45286
-2.01452
-2.15805
-1.07222
-0.910808
-0.51361
-0.680686
-0.485899
-0.426144
-0.287785
-0.197788
-0.0300165
-0.0426179
-0.119994
-0.231939
-0.275565
-0.254822
-0.225234
-0.213873
-0.234985
-0.21323
-0.224575
-0.295854
-0.326207
-0.328067
-0.319794
-0.268038
-0.272091
-0.353315
-0.406841
-0.561942
-0.603799
-0.58625
-0.512733
-0.384882
-0.387343
-0.557124
-1.13605
-1.05186
-1.73794
-3.5097
-2.53867
-3.47925
-1.93012
3.48264
0.474292
59.5331
237.31
480.785
1459.97
2998.65
4964.52
7854.5
9801.29
10135.3
8558.29
5777.71
4051.83
3812.92
3667.82
3006.99
2478.82
2778.01
3462.48
3955.11
3232.59
3280.24
2986.74
1965.72
957.468
367.813
105.958
86.769
36.2302
33.8178
75.6307
64.4414
152.978
390.483
760.312
682.757
1987.46
2486.98
3797.55
6581
8036.91
11444.3
11227.1
11966.1
14289.5
12979.1
13445.7
13927
13642.6
13543.3
13812.1
13173
12623
13671.1
10901.8
10176.3
9892.95
6558.05
5609.4
3799.76
1900.04
1286.42
988.831
898.177
450.928
222.576
130.845
120.019
123.771
256.3
834.277
813.875
2152.15
3485.34
3675.36
3017
2466.17
1750.6
2132.37
1951.4
1912.94
2011.78
1827.42
1755.09
2188.89
2260.68
2179.37
2510.56
2660.41
2902.57
3154.67
4179.67
4015.85
4280.92
4061.25
5243.15
6039.93
4631.84
4466.17
2901.55
1181.78
707.812
297.7
98.1269
37.2329
8.53806
2.92657
9.52939
8.44521
2.15453
24.5171
46.3736
150.174
68.8288
8.93811
1.93665
-5.88737
-2.63065
-0.361113
-0.931961
-0.384503
-0.517304
-0.578533
-0.499539
-1.43967
-1.88405
-6.29493
-2.55518
-3.95037
-2.29776
-2.41801
-1.07722
-0.663417
-0.278113
0.0597091
0.119671
0.0885841
-0.373476
-0.446063
-0.493331
-0.508547
-0.375387
-0.322477
-0.32297
-0.365723
-0.357184
-0.367308
-0.466426
-0.481183
-0.465399
-0.475557
-0.433625
-0.425401
-0.523969
-0.737544
-0.793493
-0.856323
-0.564813
-0.915246
-0.942698
-0.989852
-0.917207
-0.476902
-1.26141
-1.01858
-1.38661
-2.11351
-4.04892
-1.61039
-1.68073
-2.54238
3.00573
-11.3122
47.0532
211.373
429.513
1710.21
3299.8
5893.73
10466.7
13993.3
15564.9
11719.5
7831.72
5654.87
5632.94
5645.81
4792.96
4739.99
4117.09
4709.43
5687.36
5938.58
5351.2
5123.48
4607.44
2924.55
1415.86
471.649
106.854
89.4905
86.5431
54.9014
50.9229
57.0386
70.4194
53.8665
10.8621
5.17777
5.79427
8.07172
3.23471
1.83955
9.20034
4.79979
0.792746
-3.12232
-1.06657
-5.12632
-12.2193
-25.4831
-24.2757
-22.8295
-26.0857
-30.696
-22.2595
-19.1719
-24.6127
-26.944
-23.717
-12.0859
-37.9654
-11.2355
4.51564
-30.5015
-33.1815
-23.5633
-33.2595
-23.5389
-28.4171
22.4887
24.2262
42.3673
84.557
176.905
302.379
354.627
603.338
941.532
734.356
616.464
502.924
307.635
142.715
-64.5316
-83.7687
-285.24
-310.828
-342.641
-345.743
-505.16
-440.297
-212.533
50.0827
-89.3922
21.3032
9.4299
1.78114
-1.04549
0.922866
59.59
246.633
-21.1357
-2.11795
-13.4544
-8.76401
-5.24926
-3.17011
-2.20556
-1.80465
-0.865223
-0.666056
-0.608903
-0.495369
-0.668812
-0.630489
-0.615819
-0.368469
-0.576091
-0.395711
-0.474346
-0.641235
-0.48517
-0.598988
-0.733529
-0.579161
-0.615417
-0.752635
-0.565287
-0.666644
-0.807805
-0.840884
-0.915339
-0.902377
-0.898865
-1.13537
-1.03876
-0.769605
-1.01265
-1.22814
-2.23357
-3.69658
-3.45155
-5.6109
-11.4752
-1.66335
-4.3275
17.984
11.2251
264.251
1794.17
2256
7464.38
7717.12
12749.2
8516.72
9568.04
5033.98
5706.52
4234.92
3056.53
4406.33
3015.03
2889.14
4933.26
3883.86
2806.66
4353.44
2716.12
1199.85
307.918
42.4123
8.62792
27.5437
30.4545
23.4351
32.7938
123.616
183.352
592.591
1322.38
1844.83
1566.59
3431.27
5194.43
8495.95
7207.5
11050.8
13665.3
17141.3
16187.1
17713
19831.1
18327.9
19155.9
21657.7
22669.4
22424.1
21603.6
18701.8
18051.8
19100.3
16137.2
15163.6
14538.5
10270.7
8702.74
5489.3
3173.01
2047.6
1473.1
1406.26
738.506
353.865
226.989
272.885
124.901
46.6366
21.3245
52.3155
38.0346
27.5202
46.917
61.2724
22.0079
50.209
152.639
101.225
39.1704
43.026
62.5744
280.367
952.569
1601.5
1556.9
1014.67
775.035
818.553
1021.21
725.769
585.17
496.966
493.711
776.816
713.489
719.977
755.96
802.497
1105.95
1174.06
1691.34
1909.01
2341.39
2901.46
2958.2
2985.9
1591.88
577.938
138.573
60.5605
-0.975375
-16.1819
-7.75649
-7.50513
-17.997
-9.66011
52.9858
-1.60805
-12.7713
-9.51219
-4.64045
-6.37721
-7.60993
-4.19702
-2.38936
-3.14446
-3.69936
-3.96857
-3.7584
-2.82611
-2.19598
-1.70449
-1.23922
-0.870022
-1.22173
-1.21613
-0.84869
-1.14025
-1.10164
-0.785231
-1.02322
-1.00982
-0.678538
-0.919253
-1.14131
-1.16315
-0.858819
-1.0532
-1.05671
-1.21559
-0.877433
-1.07482
-1.33127
-1.32528
-0.927276
-0.997199
-1.02306
-1.09991
-1.09538
-0.994532
-1.09559
-1.15114
-1.35082
-1.80228
-2.81643
-2.99878
-2.88541
-3.39452
-5.04005
-10.6414
-11.8716
-22.1345
-24.0063
-30.8767
23.3516
511.469
534.858
1354.27
2909.12
3111.13
4152.57
6262.57
4392.2
3800.32
4418.88
2876.36
2870.3
3141.92
2421.08
2086.91
2304.14
2372.8
2156.67
2808.69
2332
2510.57
2397.84
1708.62
1715.78
1877.64
770.245
170.448
23.3992
2.04875
11.4003
26.5182
94.3752
288.99
405.113
1321.46
2510.01
1590.61
773.306
684.963
843.178
1619.16
1630.6
3215.59
3229.33
9019.51
6589.01
8543.85
13612.3
10633.4
7378.5
5090.34
5911.23
5436.36
5962.68
7825.11
10984.4
15363
19166
15548.9
20642
15068.7
10377.3
7376.6
7625.51
7592.11
7378.94
10600.4
14642.2
18934
11666.8
9870.98
10901.1
8277.31
7486.57
7898.54
5790.25
3611.27
3483.21
3726.19
2114.08
1280.41
776.912
470.979
157.183
33.5424
-23.825
-19.7141
-14.297
-13.6976
-5.30541
-35.6703
0.564562
12.0104
48.5485
49.2311
103.769
235.994
427.739
502.595
740.922
866.695
743.923
427.064
-59.8835
-393.458
-276.483
-310.712
-268.498
-343.323
-417.855
-291.352
-308.675
81.7322
754.552
857.579
1103.59
1133
1584.15
989.124
131.782
347.872
35.9199
-10.2357
-29.8935
489.484
1082.5
813.235
251.261
-9.84985
-12.2364
-8.04853
-6.30615
-5.1927
-3.88804
-3.01906
-2.21364
-1.71198
-2.1098
-1.56224
-1.88471
-1.39862
-1.71465
-1.26348
-1.55203
-1.9559
-2.11986
-1.56133
-1.81925
-1.39246
-1.61723
-1.88234
-1.49117
-1.73985
-2.05254
-2.22596
-1.72615
-1.83242
-1.45092
-1.46405
-1.53395
-1.52014
-1.49665
-1.54422
-1.8016
-2.08234
-2.59407
-3.0926
-5.32365
-6.45588
-5.62771
-7.99724
-7.48455
-5.34917
-11.4316
-11.0079
-22.3073
10.2689
-39.7497
90.1469
199.347
778.846
288.945
306.629
1457.68
1039.23
2179.85
1172.23
2034.56
1398.96
2090.75
849.537
344.165
663.894
1474.84
1083.1
1785.28
1324.54
815.905
1760.94
569.901
311.887
392.766
896.79
300.25
643.321
127.513
24.2456
-10.6806
7.15199
29.5199
100.204
310.43
289.225
96.6198
40.7506
13.5304
9.40332
45.7032
77.8683
178.02
137.955
465.18
453.578
151.944
99.0937
13.7478
13.1892
63.6641
152.167
357.537
551.298
574.71
382.462
226.38
305.665
410.302
854.842
1227.66
951.681
1216.25
1873
1172.07
1202.29
785.074
518.991
798.396
530.215
237.669
177.911
134.521
89.3188
55.1747
44.5495
20.0888
16.3403
-2.96888
-27.6421
-62.9151
8.59125
-22.5121
-22.5411
-27.3949
-23.2063
-24.3068
-25.3165
-51.2007
-3.71894
-15.971
-20.7752
-29.566
-60.3185
-36.9111
31.4654
-177.904
113.995
771.057
2749.92
6552.05
6280.19
6527.02
6092.35
3962.09
4332.94
5645.79
3573.23
3926.31
2157.95
902.735
375.584
135.921
68.1761
-53.9981
-50.5689
-36.546
-36.1787
-27.9797
-25.5683
-22.1689
-17.5388
-14.5739
-11.7979
-8.94125
-6.76918
-5.06026
-3.66692
-2.60494
-3.11477
-3.659
-3.45624
-2.42959
-2.58868
-1.90714
-1.9625
-1.95167
-1.96956
-2.00621
-2.37261
-3.52889
-4.07092
-6.01056
-8.07797
-8.16002
-10.3541
-5.43783
-18.1004
-6.5133
35.8205
-73.4226
67.4377
-57.8597
363.507
514.904
-54.0544
212.732
-578.302
171.875
-342.226
-605.047
-449.145
147.362
-134.273
462.429
83.3215
-1.54495
253.037
750.294
782.591
272.269
115.173
-19.3481
7.94749
101.736
252.563
520.316
98.776
695.865
676.509
1164.8
1157.07
1927.53
3232.05
5408.09
3463.18
2305.9
1407.75
1185.96
278.721
656.602
626.669
1538.09
1975.04
3529.12
3196.36
2024.65
3361.29
3132.41
4529.44
7958.68
4962.09
3177.07
2647.17
1700.74
1058.43
197.155
359.531
187.888
414.303
1027.5
1508.58
2573.73
4445.27
4999.48
4262.54
6886.53
9307.7
9223.45
7432.11
6419.26
3885.61
2203.07
1243.54
762.849
484.559
195.746
165.825
44.4536
-4.56112
-50.0806
2.04717
-19.0851
-15.9589
-17.3009
2.4777
-21.0443
4.10227
-2.39389
-20.4082
51.4005
155.433
-217.651
-1028.14
-1071.94
-1066.72
-769.17
-236.455
216.531
1024.87
723.701
820.895
171.605
9.84293
-176.197
731.723
2289.85
2210.57
1351.37
-8.61538
-20.467
-14.6276
-12.7015
-11.8243
-10.6954
-8.82232
-7.364
-6.28867
-4.58419
-3.35629
-2.4273
-3.10499
-3.85765
-3.70853
-2.53743
-3.16639
-2.21507
-2.056
-2.45013
-2.88215
-3.47761
-4.06994
-4.84277
-5.21661
-3.77441
-3.88608
-2.66071
-2.7354
-2.76119
-3.00602
-4.47078
-5.25956
-6.81903
-7.18102
-9.51828
-13.4716
-11.0125
-13.3872
-23.238
16.9725
-25.2284
1.33938
215.912
-21.0519
529.763
-192.842
1385.77
735.995
-534.916
-376.237
-747.379
-502.397
-38.7664
353.767
-66.0829
375.439
-99.7389
-112.109
-13.3287
256.956
734.727
382.495
915.597
1193.37
939.978
978.043
762.394
235.605
75.5449
20.6982
24.6911
146.073
259.603
233.946
418.668
399.02
220.214
326.493
848.93
105.858
1180.77
813.33
855.169
525.39
424.938
834.79
781.425
546.898
402.853
562.067
822.532
505.502
259.711
366.929
662.849
65.9452
338.327
-283.323
-479.481
316.299
-26.7463
82.39
1278.76
858.267
1287.64
-39.2611
195.365
283.388
945.595
1492.15
2603.35
4396.86
7451.39
7393.06
10232.4
15176.6
20040.7
10579.9
8047.19
7602.27
7306.18
5365.72
3316.16
3355.76
3593.36
2004.13
1116.52
638.585
367.106
109.293
-6.84687
-3.18433
-12.6262
-2.42459
-1.26959
-12.4897
7.33581
91.8146
187.001
437.55
832.292
1176.49
1008.41
1051.15
1021.11
617.624
33.1087
-350.838
-484.734
-483.076
-409.39
-199.05
343.73
1485.75
984.461
1579.49
1148.6
1252.86
1206.2
909.354
599.401
224.851
-23.99
-750.517
-576.207
-412.087
-236.655
-68.0579
76.1366
-110.926
251.863
1205.96
63.2498
131.214
6.18968
-14.989
-10.9736
-10.4556
-8.54482
-7.45961
-6.40289
-5.00474
-3.83888
-2.73172
-2.53209
-2.98844
-2.96421
-1.47341
-0.59008
-0.509935
-0.400542
-0.337478
-0.29252
-0.261531
-0.298349
-0.378567
-0.554202
-0.489805
-0.605814
-0.681096
-0.670271
-0.64988
-0.601985
-0.70686
-0.951202
-0.76475
-0.974061
-1.01201
-1.29181
-1.76327
-2.17157
-1.4755
-1.20536
-1.59133
-2.14558
-2.81001
-2.98928
-3.83611
-4.87318
-5.00389
-6.22406
-7.274
-9.0721
-10.2426
-11.8692
-17.291
-16.3585
236.409
2931.23
541.447
-65.3221
134.953
103.456
208.458
293.991
828.989
-246.718
883.667
1069.72
1373.46
974.235
1276.48
412.091
1354.7
218.941
824.667
133.491
161.256
150.74
301.489
806.424
1310.24
695.706
-437.863
-409.303
-678.177
-730.472
-734.989
37.4365
-77.952
599.536
682.373
1711.16
2003.47
2260.77
2635.37
3042.45
1396.15
473.268
235.117
2322.76
2049.57
2355.97
1429.33
67.6671
-23.6025
-17.7261
-16.7784
-14.9536
-13.7115
-12.6006
-11.1807
-9.19928
-7.40887
-5.78096
-4.19902
-4.19529
-4.81504
-5.88033
-6.64799
-5.27016
-6.12858
-4.37941
-3.72859
-4.1179
-4.93823
-5.61999
-4.18353
-6.24003
-6.90972
-7.16182
-5.3817
-5.61544
-4.0293
-4.1026
-5.62232
-5.94353
-7.53346
-8.78915
-9.97467
-10.8031
-11.3508
-16.3928
-25.1594
-12.1509
-11.9849
-2.82309
53.9128
168.33
620.974
961
1905.54
537.104
193.381
1137.12
15.4543
583.33
1014.96
789.937
1000.86
1114.56
1086.15
1460.45
904.773
242.77
127.514
178.009
12.2443
20.0103
40.195
145.921
200.509
89.7118
-161.335
521.396
-173.349
93.3778
500.75
-369.457
183.681
-815.671
-26.0976
447.318
981.281
1167.92
774.605
440.348
-181.052
477.361
9.49302
878.632
423.248
144.679
147.192
235.874
72.0656
19.2577
48.0769
321.02
493.447
852.595
1411.1
915.845
365.973
371.549
495.788
1037.8
466.703
429.712
1171.21
1389.36
131.561
1353.56
992.093
1130.39
1124.36
353.503
457.031
554.882
-403.572
-102.693
-259.927
-682.308
-791.883
-240.165
126.667
1366.75
921.108
1568.75
1160.15
671.288
343.191
1137.72
686.93
1109.77
373.255
916.057
715.956
-471.163
-498.208
-134.483
-68.2417
1489.36
840.102
1267.26
-537.972
-1125.36
-1224.69
-527.479
-519.73
-1176.06
-329.948
-330.453
-311.421
-33.614
29.388
420.278
479.712
1203.92
1631.07
2704.26
4162.3
7499.97
4998.07
4307.54
6976.2
10465.3
14447.1
18624.1
8577
8892.97
5789.69
6588.47
4549.41
2787.23
1543.91
866.423
380.986
155.37
60.8851
18.1094
-2.58127
-1.92663
-2.5671
-4.81375
5.4948
-3.89231
2.10361
59.2034
38.715
26.6172
108.079
331.598
-104.713
79.5002
722.622
235.951
-28.7
828.995
1327.86
1059.57
1501.67
700.508
-538.046
-661.074
-528.914
-440.066
-540.538
686.504
2055.66
1601.76
2821.91
2357.87
2730.07
2455.41
1360.07
1553.1
911.895
407.782
412.216
516.577
1513.49
1966.71
2971.21
1951.93
420.967
-7.72149
-0.911027
-19.3465
-18.3681
-19.1928
-16.4076
-15.0256
-13.0857
-10.5626
-8.75684
-10.417
-10.1506
-8.06327
-9.29045
-9.70541
-11.2188
-13.1963
-10.0837
-7.71641
-8.56444
-9.75954
-9.13877
-9.43
-9.64807
-7.41682
-7.3895
-9.39062
-8.89368
-10.4279
-12.5298
-18.543
-11.9221
-8.65983
-0.160188
13.5559
-58.9307
56.5591
661.411
62.3214
1043.76
1962.03
907.215
1083.5
369.108
-208.616
-1247.97
-1562.17
-1268.43
-1242.37
-1009.03
-546.71
-681.146
-438.458
-82.8301
1398.92
2026.85
676.266
1375.73
505.262
-256.509
669.08
-156.729
792.759
-88.149
-1340.46
-817.659
499.266
550.137
66.6615
0.444419
-19.3812
0.583185
85.5131
534.289
573.213
-23.5797
1101.17
34.6437
755.642
1288.81
1531.04
1715.02
1373.38
1814.14
1108.23
1861.16
1909.23
2180.11
2241.27
526.613
1499.53
473.564
320.742
1093.13
1094.47
345.119
884.409
736.919
218.344
520.294
565.839
145.088
109.42
143.318
267.727
79.431
5.33276
-5.90916
-20.2728
-23.6511
-49.635
-0.852713
-34.8723
-62.0505
11.9472
97.7636
244.446
1377.85
3565.42
2561.75
2356.91
2541.9
4499.81
5050.34
4617.49
4522.76
3830.84
3630.98
3043.89
2136.39
1228.89
388.767
255.502
1486.5
1135.17
849.706
2886.99
3462.75
113.347
38.9022
275.969
-2.05306
253.038
31.3309
425.683
436.647
1356.22
640.945
420.488
2012.5
2677.88
1355.16
2456.46
-233.49
-174.324
-0.10482
-962.905
-649.918
-858.407
1699.86
903.585
1965.61
575.186
159.666
88.3144
376.735
761.853
1059.16
1370.41
829.416
-898.443
-1184.84
-326.318
-361.356
-609.106
-45.7461
119.824
206.14
695.272
827.003
1328.62
1701.58
2340.77
4128.1
3613.63
6141.6
9760.13
12388.5
7512.81
5027.78
3496.44
1946.83
814.958
517.29
1066.36
2312.81
3220.68
6464.83
2175.29
1922.8
3083.58
5405.08
4526.16
4780.23
3305.71
2309.34
458.043
1607.29
3483.98
6590.08
4994.16
1350.5
546.433
258.882
96.9239
27.3521
4.01344
-2.23955
-3.46925
0.549829
-2.15106
-4.20222
-2.49109
8.86475
89.3521
82.7464
93.5006
125.413
198.362
89.0351
209.01
221.946
-60.6845
118.182
701.122
963.948
826.444
23.3178
1346.93
1080.11
288.739
396.954
47.0343
840.755
197.149
1942.64
2744.13
1679.54
1254.53
3527.11
2867.12
4134.75
3773.37
3267.77
2203.63
-106.092
154.644
703.837
1303.53
99.6064
-130.753
1897.96
3772.69
4691.01
3129.36
744.08
127.053
53.5032
-26.7272
-27.5385
-23.5649
-23.2148
-22.0459
-17.7896
-15.4164
-13.3881
-11.3922
-12.7489
-14.4051
-16.546
-18.308
-17.4827
-13.9248
-10.861
-12.1605
-12.9793
-14.5897
-11.9319
-12.0621
-12.1929
-11.804
-14.6412
-11.8398
-12.8988
-14.6823
3.11136
-59.3171
54.6189
204.447
648.513
893.193
2354.54
3368.35
1987.88
2449.52
2563.77
1943.69
2175.98
2197.27
2117.17
2459.82
2008.18
2354.92
2346.93
2657.32
1563.66
1540.87
2140.57
4.71287
571.352
11.9786
138.145
656.007
1176.58
2138.33
1720.83
894.383
1534.26
2259.93
2503.8
1735.12
2576.72
1948.66
1498.91
1614.01
654.459
518.006
2132.46
1089.75
1114.99
1542.58
1618.31
2447.09
2815.23
2221.86
1714.83
2510.72
3015.74
157.092
-251.13
469.753
-924.249
-1090.07
1708.43
714.055
-436.41
943.37
-449.343
2092.77
-232.476
1145.18
190.682
2076.39
437.68
1724.52
2950.7
1751.3
1796.42
1868.63
2792.1
2111.61
3527.1
2534.28
1214.7
2603.47
1269.22
4332.64
5302.05
3704.9
4050.1
2838.17
3154.21
3101.3
3272.32
4429.11
2537.21
2650.04
3320.5
3731.56
3624.7
4873.87
1764.99
3213.86
2055.64
1021.25
288.309
1533.17
3659.13
5878.11
4834.88
5081.57
4962.28
5048.48
5117.97
5428.48
5865.01
5189.19
6183.81
6851.18
6085.37
5419.41
4486.09
3653.17
3955.2
3209.22
1918.89
399.171
1502.28
3434.44
7394.96
8158.52
8933.25
8563.03
8415.94
8060.87
6534.65
6609.48
6753.37
5759.9
6870.84
4940.09
8441.58
5127.03
7798.46
11723.3
10663.5
10991.4
10955.2
9991.53
8393
7867.36
7934.1
6650.45
5661.29
6545.71
7804.69
10358.9
7304.75
11204.4
10855
10975.8
9885.64
8133.17
8264.38
8452.03
8057.43
6588.5
5692.3
6580.89
7780.2
10368.7
7699.71
11729.3
10505.8
10939.3
10723.3
10314
8703.38
7823.02
7051.36
6968.21
7447.09
6517.66
6989.37
6576.9
6914.94
7280.52
6219.08
6982.8
5851.39
4371.6
4956.81
5966.28
7072.94
6713.8
6492.87
3467.89
2219.15
1324.97
480.722
101.541
4.43013
-60.9886
-66.3698
-56.5262
-51.3493
-41.196
-36.8425
-28.9692
-24.6012
-19.6797
-20.7112
-22.5121
-26.5679
-22.6564
-22.8989
-18.191
-18.3534
-14.862
-14.9053
-18.1493
-18.124
-21.5183
-20.6408
-18.075
3.88525
-73.276
1095.93
1317
2690.68
2670.34
3454.35
4381.99
5208.71
6042.03
5787.47
5585.66
5419.25
5227
5396.55
6004.15
6303.23
5311.37
6698.47
7872.6
7589.98
9563.3
9587.62
9905.1
10493.8
11094.9
11045.1
10421.4
9608.6
6173.43
10326.4
11047.9
10345.3
11476.5
12458.7
12522.2
12701.9
12322.1
12354.9
12226.2
12280.1
12501.7
12360.2
12129
10770.9
10426.5
10206.3
7467.89
8059.05
8846.19
9828.19
10920.6
9566.18
8948.51
8046.22
8975.97
7942.3
6136.36
4973.39
3203.83
1283.54
1352.16
572.646
150.352
104.185
-5.05913
-71.1864
-75.2645
-71.0558
-61.0666
-54.7062
-45.1219
-39.0678
-31.583
-28.7367
-27.1504
-26.6815
-22.9043
-21.9939
-24.8807
-22.3059
-8.74245
32.6782
73.0072
312.285
91.4183
662.434
1906.65
1540.06
2723.77
4906.24
4898.59
5371.23
6204.01
7217.25
7282.54
6585.35
6068.06
5794.97
5619.25
4511.13
4381.89
5747.69
6016.01
9066.56
10038.8
11537.6
14358
13288.9
14269
15088.4
15008
14756
14083.1
13729.4
11402.1
14727.7
16742.6
16760.4
16479.9
16636.9
16924.7
16915
15933.2
14518.6
14351.5
14788
14923.4
14029.1
13811.7
11142.5
14602
14892.4
13991.6
12694.1
13537.1
13141.6
8288.4
10749.2
11861.6
10760.6
12842.2
12455.9
9933.07
9571.88
11299.9
11182.2
8355.81
5966.65
3726.34
1338.2
1317.08
-180.074
55.9301
103.527
-231.974
-147.712
-144.769
-118.822
-87.0224
-79.9295
-64.0904
-51.6898
-45.5771
-38.5754
-33.5207
-32.4403
-29.1522
-30.015
-14.3945
58.5793
267.851
542.02
1291.18
2247.22
3751.04
4199.06
4338.6
6210.22
8028.46
9123.65
8656.47
9287.7
8673.87
8128.53
6615.63
9468.99
9788.04
9717.3
11837.2
12540.2
14568.6
15632.2
16108.5
15639.6
16313.1
17939.3
18311.1
18088.2
18350.6
18415
18391.7
18311.1
18116.5
16433.8
16553.6
16085.3
15069
15436.2
14558.3
11304.3
14305.1
14220.2
12286.9
13667.9
13851.9
11811.5
11463.7
12696
11812.8
7394.01
6706.11
3235.71
1124.26
82.5769
-40.5192
37.2978
557.999
1815.39
1269.33
725.633
706.206
245.032
109.685
199.783
-49.09
-58.1531
-63.2317
-59.3746
-47.2696
-37.9151
-31.3454
-31.9545
27.0376
36.1885
284.152
651.331
1314.21
2283.5
3139.46
4521.6
6160.86
7769.87
9376.75
10612.1
10695.8
11379.1
10519.6
9604.05
10132.2
10546.2
12766.7
10928.4
13272.8
17021.7
17481.6
17653.4
17584.2
19833.9
20076.7
20511.2
20226.3
19444.8
18796.2
16145.1
19301.5
21125.8
21543.7
21807.8
21702.4
21764.2
20216
20217.5
20234.3
20221.1
20354.6
20352.8
19501.1
18078.5
17731.9
17047.6
17012.7
16377.9
15039.3
15038.8
15064
16032.3
15436
15126.7
13644.8
13086.2
13753.4
13182.2
10727.8
8382.29
1939.49
692.693
2289.07
4154.14
3037.36
7171.24
4994.19
4083.73
3771.43
2850.71
1816.34
1073.54
617.699
188.454
4.5913
32.299
-19.6099
-0.18777
137.313
815.55
2364.11
2150.76
4267.16
2039.29
3920.47
7059.64
2755.87
4730.26
8472.52
10579.7
13922.1
12686.4
12183.8
11543.1
14158.6
15598.8
15381
16514.7
18794.9
19528
19705.9
19171.2
20055
21048.6
21477.5
22786.2
22934
23079.3
23192.6
23199.7
23304.9
23341.5
21878.5
21604.2
21789.4
21615.1
21313.4
21197
20893.5
20003.8
18966.7
19084.1
19542.7
19719.4
18156.5
18316.5
17939.8
17361.3
17002.3
16210.1
15088.4
13675.1
13227.6
8951.02
2968.15
1799.7
3440.28
4371.21
7611.6
11609.2
9441.27
14312.3
12167.3
10067.3
8800.93
6735.11
4339.64
1296.32
1975.31
3386.13
5114.53
7364.59
11221.6
18800.3
18984.2
17273.2
15751.2
13976.7
11419.1
6265.65
9677.25
15095
14384.8
15761.2
16681.4
17626.9
19602.8
21241.6
20513.6
20751.6
20959.4
22581.4
22456.7
23495.7
23514.8
24797.1
24818
24668.3
24707.4
24767.1
24534.3
24879.3
24763.3
24504.5
24047.5
22798.4
21661.8
22407.8
22785.8
22743.2
21395.2
20115
20852.8
17061.9
11909.3
11126
10019
3596.14
2330.5
4442.87
10188.5
14538
18530.6
16746.5
19919.8
21213.8
20333.5
20192.6
18363
18078.2
16335.2
12182.5
15045.6
7210.16
10462.8
12895
15070
22796
22619.9
21298.8
16925.1
18468.6
22584.5
21955.8
22415.8
24257.9
24437.4
24640.9
25900
26273.4
26115.9
26313.5
26124
26252.9
26182.1
26180.8
26139.9
25800
25229
24473.4
22944
23829.5
24342.7
24128.1
21829.1
20395.1
22091.1
17695.7
12941.6
3968.83
4397.19
3838.43
2886.26
6931.68
12966.4
16650.1
19900.3
21533
20873.6
22579.6
24409.1
24065.3
23856.8
23453.2
25071
25836.1
25789.8
27906.5
27735.1
28022.8
28270.9
28557.7
28348.1
27512.7
26338.8
24890.6
27972.8
28526.6
28343.1
27602.1
26538.1
25703.9
28042.8
28271.2
27913.3
27669.9
27649
27688.4
23412
24266
27609.8
26638.2
24289.1
23134.7
24611.2
24767.4
16072.4
7627.33
2037.92
3729.74
9384.6
13718.2
11795.7
10344.6
17016.5
17368.1
10736.3
16688.3
7536.87
10733.5
13188.3
23781.5
25763.5
25512.4
25152.1
26451.5
26295.9
26697.8
26690.3
28067
29273.7
29569.3
29337
29531
29675
29768.3
29701.4
29764.7
29653.2
29705.5
29503.4
29308.2
29372.2
29156.9
26829
26681.9
28753.6
28547.9
26607.7
25744.4
27383.1
27313.5
10866.8
3668.02
13601.5
18064.3
23842.1
20548.6
17457.2
3386.28
5128.83
7920.34
12062
26778.8
30085.7
28216.4
26055
27856
28170.3
29498.6
28079.8
28874.4
30790.8
30572.1
30841.1
30742.1
30847.7
30947
30976.3
30956.3
30968.9
30944.8
30920.4
30857.8
30736.6
30760.9
30564.6
29593.4
29091.6
30246.1
30146.2
28676.8
28118.7
29402.3
29198.2
14572.1
6163.14
16641.5
21597.7
24859.6
29398
31723.8
31899.9
30672.2
29349.4
27241.5
29228.6
30822.7
29883
31292.6
32214.6
31783.5
31986.6
31960.3
32010.4
32083.3
32092.4
32073.5
32085.4
32091.4
32040.6
32033.9
31983.9
31971
31817.5
31565.9
30852.9
31674.4
31582.7
30637.6
30271.9
31120.6
30957
17136.3
8844.87
19898.1
23475.1
28158.2
31660.1
33080.2
33033.3
33141.3
32044
30954.9
32436.3
33619.4
34109.8
33667.1
32578.2
33399.9
32886.9
33039.8
33029.2
33039.1
33087.2
33078.4
33069
33072.7
33093.7
33049.7
33073.6
33083.3
33067.6
32958.2
33226.9
32445.1
32938.6
32871.2
32439
32152.8
32616
32368
20175.8
12179.6
16642.4
27114
31237.3
33547.6
34290.7
34073.5
34985.5
34966.9
34646.1
35121.7
34375.7
33866.7
33958.1
33936.5
33931.2
33957.8
33928.1
33912.5
33922.5
33960.7
33916.1
33962.8
34005.6
34001.1
33948.8
34464.4
33709.5
34031.3
34011.8
33920.8
33703.7
33991.9
33475.3
23760.3
28110.4
22056.7
30643.4
33794.4
35006.5
35302.4
36076.2
35751.5
35697.5
35436.9
35739.9
35428.2
34712.7
34752
34704.3
34689.5
34696.6
34643.9
34644.7
34643.2
34683.6
34650.1
34708.4
34775.1
34801.6
34790.6
35376.8
34752.2
34962.7
35003
35091.8
34919.3
35111.9
34434.9
35388.6
32213.8
27881.2
33686.5
35568.8
35969
36646.4
36676.1
36389.8
36319.8
36121.8
36228.1
36012.5
36003.3
35425.4
35354.4
35333.8
35327.2
35250.7
35238.9
35241.5
35302.3
35263.8
35330.9
35403.4
35445.4
35464.1
35996.5
35548.6
35710
35800.1
35950.8
35841
36065
36594
36412.9
37053.8
35533.9
36170.1
36562.5
37178.9
37237.8
37183.5
36956.8
36854
36644.1
36697.5
36522.2
36503.8
36410.7
35914.1
35883.1
35869
35780
35788.4
35769.5
35819.3
35782.1
35848.1
35921.2
35975.2
36061
36432.6
36207.9
36290.9
36413.3
36540
36487.3
36999.2
37098.1
36965.3
37193.2
37158.9
37093.8
37640.5
37662.5
37717.3
37632.5
37444.3
37332.9
37139
37125.9
36974.3
36954.7
36860
36790.1
36362.5
36340.4
36238.7
36223.4
36200.8
36272.3
36221.1
36296.2
36377.4
36438.2
36556.4
36774.3
36724
36799.7
36925.5
37026.7
37422.2
37452.3
37518.9
37469.9
37634.1
37670.1
38033.9
38099.9
38130.9
38184.1
38055.8
37870.1
37737.7
37544.7
37495.1
37360.3
37319.4
37236.4
37129.2
37058.1
36731.1
36641.1
36669.3
36613.6
36646.6
36586.3
36704.8
36800.7
36823.2
36973.7
37151.1
37213.3
37245
37372.8
37720.9
37790
37867.5
37906.9
37881.7
37979.7
38204.5
38352.4
38444.7
38610.9
38582.6
38382.7
38247.2
38084.6
37921.3
37760.7
37678
37591.8
37509.4
37352.3
37349.6
37094.3
37292.8
36998.6
36916.5
36922.1
36806.2
37045.3
37171.8
37030.9
37248.9
37456.8
37602
37590.7
37745.7
38023.4
38006.5
38159.1
38185.3
38219.1
38654.8
38348.8
38592.4
38691.7
39086
38831.7
38584.2
38665.3
38392.2
38234.6
37935.4
38142.1
37876.1
37738.8
37493.6
37854.4
37330.5
37406.2
37190.7
37488.2
37102.5
36875.8
37214.4
37366.4
37083.5
37370
37663.4
37930.5
38002.2
37978.9
38529.2
38100.3
38363.7
38464.1
38959.4
38818.7
39061.1
39005.4
38987.5
38717.2
39234.4
39339
39209
38984.3
38643.6
38712.8
38695.4
38687.3
38425.5
38463.7
38338.8
38346.5
38335.1
38240.9
38074.2
38192
38116
37588.6
38301.9
38585.9
38582.4
38487.9
38451
38427.7
38080
38144.2
38234.3
37961.2
38167.1
37146.6
37217.4
37401
37396
37682.3
37606.3
38517.9
38572.9
38552.3
38826.4
38897
38860.8
38792.6
39010.2
38932
39187
39145.6
39224.7
39583
39543.8
39430.5
39294.9
38951.8
38855.2
38932.9
38641.7
38665.5
38677
38971.5
38888.2
38797.8
38805.1
38786.5
38648.8
38716.7
38718.5
38402.8
38405.2
38604.2
38387
38702.3
38659.3
38805.7
38810.1
38897.8
38984.1
39080.5
39211.6
39195.1
39086.5
39405
39406.6
39452.5
39908.3
39840.6
39719.9
39581
39205.8
39185.5
39224.2
38924.9
39000.7
39292.1
39248.1
39155.5
39055.9
39059.2
38925.2
38794.6
38882.2
38857.1
38524.8
38687.6
38819.9
39074.6
38886.4
39103
39175.2
39171
39243.7
39363.6
39376.5
39278.3
39602.6
39648.3
39691.3
40183.1
40145.1
40031.6
39881.2
39472.7
39460.3
39529.4
39228.6
39551
39622.1
39540
39419.6
39289.7
39303.1
39137.2
38941.8
38991.1
38976.1
38568.6
38721.6
38924.6
39177
39017
39251.9
39363
39329.2
39398.4
39532
39580.4
39510
39898.2
39964.8
39982.4
40558
40495
40399.6
40216.1
39795
39853.6
39896.3
40234.1
39870.4
39904.2
39792
39649.6
39487.2
39484.4
39170.2
38993.2
39060.4
39003.6
38512
38644.8
38963.5
39193.5
38993
39213.2
39449.1
39400.2
39522.5
39688.3
39788.7
39743
40160.2
40267.6
40278.5
40919.5
40871.4
40810.2
40586.5
40124.6
40190.2
40656.4
40654.4
40240.4
40272.9
40094.7
39900.1
39696.8
39686.2
39322.3
39076.5
39063.1
39025.2
38379
38481.3
38935.2
39095.3
39006.8
39253.4
39570.7
39542.7
39696.1
39903.7
40057.4
40045
40543.6
40674.3
40642.5
41391.2
41362.8
41312.3
41024.3
40538.8
40980.9
41116.7
41105.4
40641.2
40628.9
40384.3
40145.9
39920.2
39874
39338
39078.5
39039.6
38958
38018.6
38123.7
38837.4
38988
38893.9
39157.9
39660
39659.2
39872.6
40139.2
40380
40397
40930.8
41100.5
41036.7
41872.8
41937.4
41898.3
41514.2
42094.5
41458.2
41669.7
41502.3
41083.8
41030.5
40681.6
40269.4
40113.3
40059.6
39381
38878.7
38932.5
38872.2
37439.8
37529.1
38626.2
38815.7
38627.3
39102.7
39791.6
39820.9
39974
40398.6
40730.3
40823.4
41347.4
41618.3
41483.3
42519.2
42571.8
42531.5
43007.1
42604.8
41543.1
42153.6
41656.7
41281
41101.8
40987.6
40160.2
40253.7
40138.2
39238
38135.9
38863.2
38692.2