/*--------------------------------*- C++ -*----------------------------------*\
  =========                 |
  \\      /  F ield         | OpenFOAM: The Open Source CFD Toolbox
   \\    /   O peration     | Website:  https://openfoam.org
    \\  /    A nd           | Version:  7
     \\/     M anipulation  |
\*---------------------------------------------------------------------------*/
FoamFile
{
    version     2.0;
    format      ascii;
    class       surfaceScalarField;
    location    "18.9";
    object      phi;
}
// * * * * * * * * * * * * * * * * * * * * * * * * * * * * * * * * * * * * * //

dimensions      [0 3 -1 0 0 0 0];

internalField   nonuniform List<scalar> 
42560
(
-0.016032
0.00532999
-0.0028316
-0.00142639
0.000525644
0.0144342
-0.000946425
-5.79774e-06
-0.00124426
-0.000454751
0.00056084
-0.00374319
0.00929642
-0.000182416
0.00541451
5.24934e-05
0.000413839
0.00622206
-0.000284801
-0.000526177
0.00695272
-0.000629996
-0.000122142
0.0027211
-6.48807e-05
0.000765063
0.00185917
2.03812e-05
0.00162658
-5.0924e-05
0.000353916
0.00257032
-0.00134416
-0.000129875
0.00208091
-0.00144264
0.000694409
0.00170879
6.68322e-05
0.000205502
0.000616626
0.00202459
0.000470045
0.000196495
0.00264854
6.08095e-06
0.000137064
0.00236764
-1.6477e-05
0.000118753
0.00200671
-9.66695e-05
-0.000335047
0.00368661
-0.000286508
-3.72267e-06
0.002671
-0.000189787
0.00013174
0.00223403
-9.88984e-05
-0.000454906
0.00402443
-0.000289244
8.75314e-06
0.00287316
-0.00018304
8.56113e-05
0.00237569
-6.36756e-05
-0.000481303
0.00424117
-0.000202919
-9.50883e-05
0.00302113
-9.56608e-05
-0.000318727
0.00245946
5.50105e-05
-0.00137451
0.00258037
0.000349105
-0.00245937
0.000406354
0.000688727
-0.00316817
-0.000818642
0.000260745
-0.00296302
-0.00114487
-0.000461464
-0.00433852
-0.000755903
0.000218882
-0.00505938
-0.000666372
-0.000354871
-0.0054693
-0.000691564
-0.000719727
-0.00700434
-0.000306839
-8.02211e-05
-0.0126576
0.00137649
0.00209872
-0.013765
0.00160111
-0.00265323
-0.0135666
-0.00111329
-0.00376575
-0.0130314
-0.00367928
-0.00405697
-0.0153366
-0.00555856
-0.00160523
-0.0263812
-0.00895049
0.00339155
-0.0211055
-0.0163317
-0.00696045
-0.0226821
-0.0133565
-0.00310751
-0.0366591
-0.0174442
0.00360507
-0.0228973
-0.0285716
-0.0143609
-0.0235566
-0.0228376
-0.00444049
-0.0324224
-0.0284129
-0.000228153
-0.0149159
-0.0419899
-0.0153511
-0.0129557
-0.0274408
-0.00488306
-0.0140224
-0.0312641
-0.0064969
-0.00849206
-0.036514
-0.00886166
-0.00503271
-0.0387683
-0.00881188
0.00135807
-0.0390046
-0.010343
0.00657769
-0.0401858
-0.0086516
0.00897245
-0.0398238
-0.00730695
0.0128237
-0.0399467
-0.00645022
0.00654633
-0.0398884
-0.0011785
0.00174424
-0.037397
-7.24121e-05
0.0108661
-0.0539742
-0.00364365
0.00340212
-0.0460547
-0.00186188
-0.0105846
-0.0334501
-0.000573083
0.00105463
-0.0585183
-0.00443695
-0.00341322
-0.0471267
-0.00400811
-0.00614959
-0.0385856
-0.00103303
0.00855605
-0.0593495
-0.00889257
0.00280653
-0.0437494
-0.00515758
0.000762245
-0.0346797
-0.00194942
0.0097557
-0.0493226
-0.00875534
0.0237937
-0.0581655
-0.0132969
0.0362396
-0.063716
-0.0172418
0.0180412
-0.0301979
0.00100495
0.0118663
-0.0201587
-0.00385378
0.0110149
-0.0237902
-0.00288153
0.00119582
-0.0235847
0.00488756
-0.0133492
-0.0207103
0.000995181
-0.0290035
-0.0298092
0.00138534
-0.0191991
-0.0628292
-0.014294
-0.00367208
-0.0558402
-0.0113991
-0.00229094
-0.0509577
-0.00624069
-0.00634802
-0.029615
-0.00353504
-0.0184132
-0.0464046
-0.00491017
0.00337719
-0.0585152
-0.012269
-0.0125321
-0.0376685
-0.0044526
-0.0133159
-0.0477002
-0.00571348
0.000245704
-0.0644484
-0.0102217
-8.16181e-05
-0.040715
-0.000466214
-0.00859891
-0.0477218
-0.00399293
0.00614669
-0.0603747
-0.00687175
0.00191871
-0.0354706
-0.000641762
-0.00029649
-0.0399376
-0.00325107
-0.000506748
-0.0426102
-0.00372303
-0.00077028
-0.0454021
-0.00411388
-0.00041023
-0.0447384
-0.00400815
0.000142281
-0.044637
-0.00408614
-0.000223061
-0.0456274
-0.00410726
0.000233604
-0.0424281
-0.00389556
-0.00236906
-0.040155
-0.0034483
-0.00519489
-0.0353987
-0.000498908
0.00749168
-0.0613612
-0.00679781
0.0023282
-0.0474083
-0.00370932
-0.00318475
-0.0418005
1.07163e-05
0.0140986
-0.0657745
-0.00839763
0.0072036
-0.0496522
-0.00390486
0.00459429
-0.0435128
-0.00162819
0.0198923
-0.0671903
-0.0100446
0.00574675
-0.0505281
-0.000203382
-0.00131362
-0.0403504
0.00169648
0.00188126
-0.0479216
-0.00267728
0.0140686
-0.0566924
-0.010042
0.0225118
-0.0666683
-0.0111474
0.000979916
0.0046245
-0.0367788
-0.0142144
0.00132497
-0.0250687
-0.0154332
-0.00149902
-0.0293231
-0.0102082
-0.00832215
-0.0292006
-0.0162247
-0.00578769
-0.02461
-0.0301127
-0.00252579
-0.0346541
-0.0146782
-0.0207478
-0.0720355
0.00453519
-0.0151576
-0.0627743
0.00720133
-0.0072412
-0.0535331
0.00188707
-0.00371257
-0.030748
-0.0108595
-0.00763665
-0.0566627
0.00833248
-0.00536876
-0.0695324
-0.00246302
0.00179674
-0.0458423
-0.00520973
0.000909041
-0.0478874
0.00278793
-0.00235095
-0.0608781
0.00107577
0.00292969
-0.0394228
-0.00850447
0.0014865
-0.0450487
0.00448878
-0.00297998
-0.0582133
0.000375299
0.00213514
-0.032788
-0.00244739
5.73273e-05
-0.035572
-0.00303095
-0.00147974
-0.0356983
-0.00291094
-0.00300398
-0.0391001
-0.00290722
-0.00189327
-0.0417274
-0.00442385
-0.00198479
-0.0464672
-0.00468007
-0.00320661
-0.0469774
-0.00376718
-0.00371495
-0.0372121
-0.00611731
-0.00150822
-0.037078
-0.0094702
0.000391479
-0.0339583
0.000859214
-0.0051862
-0.0592536
-0.00140041
-0.00585714
-0.044642
-0.00506582
-0.00203484
-0.0390802
0.0141788
-0.0116044
-0.0612038
0.00835382
-0.00651974
-0.0476408
0.0073958
-0.00482329
-0.0398359
0.026403
-0.0155139
-0.0566856
0.0162048
-0.00279312
-0.0381888
0.0156168
-0.0042975
-0.0296948
0.0241081
-0.0103952
-0.0383119
0.032927
-0.0126075
-0.0374961
0.0373025
-0.0160147
-0.0296097
0.017688
0.00391856
-0.0115472
0.00739535
-5.29733e-05
-0.00859578
-0.00496032
0.00420869
-0.00994417
-0.00753279
-0.00651619
-0.0114714
-0.014623
-0.0124587
-0.0157771
-0.0236666
-0.0167328
-0.0280234
-0.00181915
-0.0374313
-0.0646445
0.0170645
-0.0268506
-0.045699
0.0139303
-0.0158378
-0.0257417
0.00860301
-0.008891
-0.00926447
0.00860576
-0.00997186
-0.00365121
0.00820242
-0.00229616
0.00288643
0.00514902
0.00161844
0.00322499
0.000424851
0.0060428
0.00120881
0.000432458
0.00506631
0.00399495
0.00404035
-0.0016565
-0.00366492
0.0371591
0.0145979
-0.0068625
-0.0204687
0.0101279
0.0029893
0.00308719
-0.0118359
-0.00363134
-0.00517743
-0.0290907
-0.0369634
0.00191495
-0.0359272
-0.0648214
0.00243868
-0.0401486
-0.0779243
0.038407
-0.0110626
-0.0394587
-0.0550294
0.0114548
-0.00916175
-0.00662918
-0.00583192
-0.00505198
-0.0192916
-0.00673373
-0.0108022
0.00831416
-0.00593821
-0.0110001
-0.00138015
-0.0090441
-0.000760602
-0.0109686
-0.00297821
0.00597183
0.0252514
-0.0122481
-0.0249519
-0.0103175
-0.00910088
-0.0217071
-0.0349993
-0.000938813
-0.0217645
-0.0430583
-0.0101404
-0.0114104
-0.0239019
-0.0144793
-0.007421
-0.0273537
-0.00672824
-0.0714414
0.00537298
-0.0251595
-0.0730299
-0.00562391
-0.0143907
-0.0242994
-0.0178587
0.000214479
-0.0238473
-0.0158661
-0.0831499
0.00953048
-0.0156787
-0.0763427
0.00162619
-0.0134986
-0.0142347
-0.0169022
0.00316599
-0.0126499
-0.0177796
-0.0802386
0.00929547
-0.00746812
-0.0699812
0.00557922
-0.0123009
-1.9594e-05
-0.0163866
0.011217
-0.00767631
-0.0135264
-0.0680469
0.0037381
-0.0170446
-0.00333001
-0.0174119
0.00876931
-0.00838252
-0.0127095
-0.0717126
0.00296835
-0.0175562
-0.0020923
-0.0176191
0.0086851
-0.00798704
-0.0117162
-0.0726629
0.00215189
-0.0168404
-0.00223826
-0.0165325
0.00401033
-0.00718254
-0.00895489
-0.0717255
-0.000108223
-0.0161713
-0.00176211
-0.0125676
0.00576498
-0.00620351
-0.0717033
0.00941899
-0.00859672
-0.0103666
-0.076842
0.000470529
-0.0176783
-0.000995356
-0.0143439
0.00573591
-0.00549289
-0.0784372
0.00912429
-0.0103647
-0.0105794
-0.0808208
-0.000359594
-0.0183687
-0.00589117
-0.0148604
0.0049141
-0.0116083
-0.0776586
0.0205818
-0.0131307
-0.0210921
-0.0737635
5.00401e-05
-0.0151105
-0.00917252
-0.0121358
-0.00123901
-0.0177388
-0.0545575
0.00655027
-0.0246464
-0.0637645
0.0151808
-0.0300614
-0.0736664
0.0252729
0.00217433
-0.0269237
-0.0595236
0.0134091
-0.0109498
0.00327904
-0.00852259
0.0117095
-0.0178711
-0.0314037
0.0115518
-0.000173281
-0.0344063
0.00795939
-0.00904385
0.00253382
-0.0137682
-0.0112844
0.00477178
-0.00491301
-0.0607228
-0.00784438
0.00190782
-0.0542189
-0.01965
-0.0488601
-0.00509418
-0.0189117
0.00518424
-0.0319272
-0.00543051
-0.0340538
-0.0505601
0.000655687
-0.048459
-0.0591304
0.00559305
-0.0404944
-0.0645155
-0.0297034
-0.0722984
0.00973399
-0.0429776
-0.00577378
-0.0691346
0.00711406
-0.0324978
-0.0660764
-0.0188885
-0.0774673
0.00875594
-0.0306213
-0.0130837
-0.060181
0.00575395
-0.0231887
-0.0666609
-0.0162658
-0.0768616
0.00982891
-0.0260726
-0.0112573
-0.0630296
0.00509749
-0.0200844
-0.0630418
-0.0122243
-0.0729918
0.00792058
-0.0206698
-0.0144102
-0.0641848
-0.0126406
-0.0773119
0.00979524
-0.0215165
-0.0166644
-0.0682516
-0.013818
-0.0787669
0.00963529
-0.0210494
-0.0187881
-0.0719574
-0.0137239
-0.0802738
0.0104202
-0.0207354
-0.0193666
-0.0745235
-0.012727
-0.078534
-0.0209266
-0.0189973
-0.0763224
-0.0332094
-0.0278864
-0.0669208
0.0259002
-0.0423937
-0.0310646
-0.048739
-0.0299798
-0.068948
0.0305225
-0.0373795
-0.0369296
-0.0439659
-0.0291686
-0.0599413
0.0287459
-0.0373229
-0.0336575
-0.039386
-0.0227082
-0.0608774
0.0311008
-0.0269866
-0.0385795
-0.0362217
-0.019822
-0.0531854
-0.0231748
-0.0336758
-0.0376545
0.0233316
-0.115229
-0.0490475
0.033742
0.0319732
-0.0906294
-0.0434221
-0.0266522
0.0438438
-0.124122
-0.0965226
-0.0894214
-0.0366872
-0.033153
0.050592
-0.121227
-0.148312
-0.136119
0.0400258
-0.0294101
-0.0465863
0.0316976
-0.0327921
-0.0539707
0.0229811
-0.0228277
-0.0772323
-0.016089
-0.0875699
-0.0347937
-0.0208727
-0.0736424
-0.0405285
-0.0285327
-0.0577792
0.0343038
-0.0937866
-0.158717
-0.183182
0.0407291
-0.044015
-0.0594763
0.0317068
-0.0267912
-0.0656864
-0.0134835
-0.0807307
-0.0375256
-0.0167116
-0.063239
-0.0474066
-0.030204
-0.0586016
-0.0661383
-0.0346054
-0.0555477
0.0606809
-0.109156
-0.180343
-0.189871
0.045835
-0.0265316
-0.0462932
0.0408942
-0.0329586
-0.0435714
0.0310551
-0.0145932
-0.0522632
-0.00338024
-0.0560288
-0.0339154
0.000155635
-0.0272757
-0.0415707
-0.0113042
-0.0200049
0.0434653
-0.0252916
-0.14278
-0.0555184
0.0336273
-0.00261778
-0.00062073
0.00438869
0.00141113
-0.00387638
0.000771181
0.0648528
-0.0254247
0.00122332
0.105447
0.014034
0.0174364
-0.0225712
0.320341
-0.00454825
0.008367
0.0827318
-0.00891241
0.00316662
0.044217
0.00254426
0.0145634
-0.0321012
-0.0342211
-0.0425648
0.00812007
-0.0574952
-0.0425489
0.00863784
-0.0756263
0.0473193
0.0110675
-0.156817
-0.285451
0.0461463
0.00708729
-0.0778531
0.00472596
-0.0651749
-0.0453632
4.1796e-05
-0.0773053
-0.037058
0.00046764
-0.0934633
0.0286255
-0.00945811
-0.0325488
-0.126903
-0.37364
0.0405694
-0.00765011
-0.0892888
0.00169777
-0.079761
-0.0357094
-0.063924
-0.0395786
-0.000136453
-0.0888792
-0.0398837
-0.00464411
-0.0897336
-0.0473762
-0.0101892
-0.0845172
0.0224091
-0.0212497
0.0200097
-0.0674009
-0.111987
0.0180202
-0.00719314
0.0105674
0.0172516
-0.00162475
0.0350852
0.000171047
0.0449772
-0.00612661
-0.00393846
0.044711
-0.00707099
-0.000939816
0.0479852
-0.0185256
-0.00187444
0.0554041
0.0102365
-0.0104542
0.154953
0.00528662
0.000178487
0.00446578
-0.000353725
0.0334602
0.00331269
-0.00112004
0.0282197
0.0261459
0.0224326
0.00785549
-0.000555566
0.00174248
0.0125203
-0.00275759
0.0200725
0.00412833
-0.0115316
-0.0148675
-0.0079589
0.0225831
0.0127614
-0.00556445
-0.0105866
0.00801371
-0.00673151
-0.00453131
-0.00340766
0.00580301
-0.00342918
-0.00583966
0.000295722
0.00179298
-0.000781255
-0.000604031
0.000286685
0.000698661
-0.000532002
0.00657874
0.000300881
0.000249635
0.00171304
0.000226006
0.00171182
0.000127985
0.000268449
0.00188934
-0.00126861
0.00103979
0.00251814
-0.00163816
-0.000334791
0.00167613
-0.00138115
0.000780598
0.00122902
0.000558609
-4.49233e-05
0.000244198
0.00242417
0.000584811
2.61872e-05
0.00255835
0.000307795
3.93015e-05
0.00211236
0.000241468
9.57909e-05
0.00180591
0.000143526
-0.000124284
0.00370578
0.000199884
6.21109e-06
0.00233798
0.000201819
0.000100746
0.00197106
0.000168027
-0.00014686
0.00405738
0.00021415
8.731e-06
0.00248936
0.000227777
0.000128572
0.00206372
0.000191875
-7.52542e-05
0.00414406
0.00030071
7.89143e-05
0.00257528
0.000291514
0.000237991
0.00210929
0.000191112
0.000195444
0.002347
0.000275779
0.000873931
-0.000361771
8.95505e-05
0.001877
-0.00155754
-0.000264213
0.000365437
0.000320489
4.59086e-05
-0.000358013
0.000101708
-0.000134071
-0.0010592
3.03166e-05
4.55717e-06
-0.00158639
-0.000349864
0.000185154
-0.00158206
-2.96028e-05
-0.00028184
-0.00320059
0.00225756
0.000737328
-0.000900339
0.00102261
-0.00172191
-0.00277023
0.00213622
-0.00137977
-0.00553106
0.000875444
-0.00179422
-0.00835598
-0.00118578
-0.00154895
-0.0172156
-0.00315931
0.00306757
-0.0166454
-0.0129618
-0.00394125
-0.0181737
-0.0083474
-0.00348196
-0.0326074
-0.00781791
0.00480697
-0.0232615
-0.0217755
-0.0161426
-0.0222807
-0.0170131
-0.00680632
-0.0327172
-0.0184205
0.000443711
-0.0153342
-0.0395997
-0.019774
-0.0125331
-0.022593
-0.00764981
-0.0144641
-0.0237553
-0.00557856
-0.00861127
-0.0308309
-0.0115364
-0.00541297
-0.0326964
-0.0092708
0.000978778
-0.0340647
-0.0113319
0.00692302
-0.0350503
-0.01108
0.00867769
-0.0338538
-0.007725
0.0122022
-0.0337463
-0.00972521
0.00493839
-0.0311944
-0.00143088
-0.000670622
-0.0287747
-0.00301383
0.00790761
-0.0524472
-0.0101061
-3.99629e-05
-0.0326334
-0.005474
-0.00529577
-0.0236057
-0.00458844
-0.000867326
-0.0524084
-0.0105381
-0.00257713
-0.0387299
-0.0066871
-0.00638551
-0.0312672
-0.00351037
0.00579515
-0.0578949
-0.0136356
0.00211282
-0.0347819
-0.00528566
-0.000676144
-0.0275972
-0.00429392
0.00851346
-0.0456631
-0.0128493
0.0208287
-0.0525728
-0.0179082
0.0361622
-0.0579005
-0.0211493
0.0106655
-0.00731059
0.0026094
0.0123255
-0.0168388
-0.00498029
0.00808449
-0.0182133
-0.00133656
-0.00310606
-0.0178099
0.00541488
-0.00680661
-0.0140233
-0.00298717
-0.0274888
-0.0100908
0.000963999
-0.0151486
-0.057464
-0.0177056
-0.00337292
-0.0514614
-0.0161547
-0.000348499
-0.0411506
-0.0128319
-0.00279962
-0.0206513
-0.0065128
-0.0150522
-0.0288095
-0.00534239
0.00148262
-0.0543629
-0.0206875
-0.00303779
-0.0251709
-0.00797734
-0.0124527
-0.0325431
-0.00574195
0.0031298
-0.0630642
-0.0169666
-0.000183213
-0.0340018
-0.00340029
-0.00368112
-0.0385282
-0.00569611
0.00618298
-0.0577041
-0.0125353
0.00189408
-0.0283906
-0.00279174
0.000109196
-0.0326851
-0.00546817
-0.000850269
-0.0354897
-0.00616146
-0.000782081
-0.0388919
-0.00657846
-0.000355272
-0.0385377
-0.00662812
-9.5399e-06
-0.0384824
-0.00650059
0.000247957
-0.0391671
-0.0067179
-0.000550018
-0.0355048
-0.00612549
-0.0020429
-0.0330513
-0.00561138
-0.00610969
-0.0286857
-0.00264669
0.00356702
-0.058613
-0.0124257
0.000733867
-0.0392157
-0.00535993
-0.00353427
-0.0345375
-0.00299509
0.00947093
-0.064708
-0.0140722
0.00583514
-0.0410353
-0.00498142
0.00347253
-0.0358276
-0.00532282
0.0149555
-0.0633366
-0.0153377
0.0047471
-0.0384428
-0.00187729
-0.00251548
-0.0308699
-0.00221828
-0.000136087
-0.0435858
-0.00671586
0.00986392
-0.0522242
-0.0144682
0.0212072
-0.0625657
-0.0154462
0.000148432
-0.0177058
0.00198526
-0.010968
-0.0145842
0.00063098
-0.0136491
-0.00233619
-0.0243062
-0.0102977
-0.00872617
-0.023826
-0.00875094
-0.019202
-0.00695534
-0.0300326
-0.0128975
-0.000475085
-0.0104092
-0.0665866
-0.0250725
0.00344998
-0.0568202
-0.0198137
0.00429798
-0.0416419
-0.0127394
0.00215943
-0.0210953
-0.00751407
-0.00558923
-0.0395016
-0.00941195
0.00629079
-0.0683616
-0.0130507
0.000121353
-0.0371938
-0.00247902
-0.00411362
-0.0414576
-0.00219474
0.00466983
-0.0606742
-0.00898886
0.000456495
-0.0343716
-0.000837675
-0.00460951
-0.0386283
-0.00135434
0.00440417
-0.057659
-0.00956947
0.000322755
-0.028103
-0.000603963
-0.00263768
-0.0308657
-0.0017464
-0.00340013
-0.0313258
-0.00361064
-0.00271603
-0.0366262
-0.00315792
-0.00186993
-0.0380969
-0.00447653
-0.00379561
-0.0405013
-0.00404005
-0.00269765
-0.0411939
-0.00688148
-0.00310045
-0.0319339
-0.00487558
-0.0043533
-0.0311019
-0.00472355
-0.00971264
-0.0276106
-0.000989392
-0.00213668
-0.0550953
-0.011735
-0.00217673
-0.0363901
-0.00821226
-0.00523861
-0.0316
-0.00441866
0.00983572
-0.0594451
-0.0168334
0.00674834
-0.0370823
-0.00747169
0.00665213
-0.031922
-0.00781812
0.0248038
-0.0547981
-0.0200399
0.0156344
-0.0274205
-0.00159924
0.0160636
-0.0233153
-0.00680932
0.0252775
-0.034386
-0.0131404
0.0314697
-0.0281336
-0.0155551
0.0322609
-0.0143546
-0.0160471
0.00963389
0.00569617
0.00538327
0.00628136
0.000112236
-0.00535576
-0.00692772
-0.00254536
0.00581007
-0.0120563
-0.00672003
0.00037631
-0.008296
-0.0104104
-0.00912675
-0.0242554
-0.00298692
-0.00907613
0.00638991
-0.0579377
-0.037352
0.0180177
-0.029467
-0.0278605
0.0135617
-0.00633276
-0.0149533
0.0117897
-0.00439013
-0.00310269
0.0138241
-0.00287651
-0.0028092
0.00917264
0.00633888
0.00119807
0.00587874
0.00407239
0.00244649
0.00480784
0.00611024
0.00100358
0.000187787
0.0110835
0.00516536
0.000722566
0.000965993
0.00108535
-0.00348809
0.00494914
0.00456121
-0.00419156
0.00225232
0.00715386
-0.00512538
-0.00542747
0.00729257
-0.0094651
-0.0169388
0.0262653
0.0115449
0.0392556
-0.0209265
-0.0182853
0.0270738
0.00615089
-0.00339661
-0.00707418
0.00350164
-0.00195522
-0.0185333
0.0102081
0.00750317
-0.00625308
-0.011182
-0.00963935
0.0102988
-0.00425972
0.00517529
-0.00629655
-6.14962e-06
0.00305377
-0.004039
-0.00326883
0.000979352
-0.000117134
-0.000411505
-0.000457112
0.00157321
0.000168737
-0.000635309
0.000719249
-0.000556522
0.000141794
0.000270334
-0.000707242
-0.000481971
-0.000126881
-0.000660321
-0.000323726
-0.00064329
0.000936418
0.000138329
-0.000436191
0.00190177
0.000314822
-0.000379148
0.00188925
0.000611342
-6.58889e-05
0.00131328
0.000484783
6.6408e-05
0.00127442
0.00039811
-0.000159533
0.00300152
0.00092904
-1.24673e-05
0.00166181
0.000528133
0.000141896
0.00136229
0.000453782
-0.000179982
0.00335353
0.0010248
-8.12645e-06
0.0017643
0.000552561
0.000180238
0.0014006
0.000474539
4.04831e-05
0.00325487
0.00102876
0.00015681
0.00186362
0.000595123
0.000626679
0.0012865
0.000352843
0.00116852
0.00146349
0.000341269
0.00131639
-5.84499e-05
-0.000451441
0.000543647
-2.00102e-05
-0.000764855
-0.00123128
0.000443587
0.00154939
-0.000218031
0.000859105
-0.00166893
0.000539298
0.00116361
-0.000400687
0.000844168
-2.89075e-05
-0.000246797
0.000570571
-0.000338243
0.000261326
-0.000846339
0.00192192
-0.000788305
0.000283193
0.00087486
0.000506271
0.00313919
0.000700918
-0.00104375
0.00397209
0.00145584
-0.00126631
0.00514152
0.0018371
-0.000870812
0.00593758
0.000942427
-0.000863883
0.00291886
0.000718378
0.00111306
0.000569522
-0.00218693
0.00137453
-0.0105208
-0.00220414
0.000330172
-0.0108426
-0.00503872
-0.00298846
-0.0269179
0.00209895
0.00615703
-0.0200927
-0.0174726
-0.0111294
-0.0164509
-0.0117129
-0.00894173
-0.0335287
-0.00077955
-0.000565352
-0.0129477
-0.0354559
-0.0247253
-0.008779
-0.0166465
-0.0101152
-0.0158811
-0.0108997
-0.00575436
-0.00669142
-0.0253701
-0.014651
-0.00637821
-0.022289
-0.010721
0.000716189
-0.0278242
-0.0133352
0.00826861
-0.0285934
-0.0140097
0.00651263
-0.02321
-0.00888844
0.0119715
-0.026336
-0.0128699
0.00304148
-0.0175431
-0.00472301
-0.001672
-0.0175554
-0.00650673
0.00466481
-0.0423425
-0.016442
-0.00259077
-0.0193786
-0.0060003
0.0126198
-0.0137103
-0.00149896
-0.00921697
-0.00176684
-0.00203511
-0.0414064
-0.0181841
-0.00151913
-0.0293408
-0.00990503
-0.00583305
-0.0195023
-0.00745118
0.00543671
-0.0473538
-0.021811
0.00139249
-0.022913
-0.00782474
-0.00129485
-0.0175336
-0.00737627
0.0039817
-0.0341373
-0.0168025
0.0126823
-0.0421655
-0.0191082
0.0173185
-0.0423198
-0.0202174
0.0352538
0.0335951
-0.0386958
-0.0128357
0.00141735
0.0096847
0.0160644
0.00610226
0.0128447
0.00481167
-0.00524461
-0.00171693
-0.0105727
-0.00493304
0.00250555
-0.0211467
0.00332447
-0.000361541
0.00761018
0.0303376
-0.0337591
-0.00808435
-0.00964184
0.0095474
0.0038865
0.000377876
0.0034048
0.00187794
-0.00272367
0.00274065
0.0036591
0.000209503
0.00635529
-0.00961166
0.000911273
0.00802319
0.000982894
-0.0026511
0.00463266
-0.0102651
0.00117797
-0.00637065
0.0112708
-0.0255407
-0.00749236
0.0173211
-0.000487362
-0.0403093
-0.00120138
0.0198578
-0.00756892
-0.0214123
0.000928505
0.0125207
-0.000866712
0.00800979
0.00593572
0.00739561
0.0422383
0.00789228
0.0814761
0.00919311
0.0113857
0.0823484
0.0121804
0.128601
0.0111254
0.0917637
-0.0136569
0.225034
-0.00594825
0.0971793
-0.0100711
0.296918
-0.00592037
0.0163313
0.0144797
0.440925
-0.0777636
-0.00995096
0.00728989
0.521922
-0.00751212
0.0703772
0.0733272
0.0820714
-0.0207829
1.78285
0.0606304
0.076509
0.0605659
0.0543947
-0.0125114
1.94149
0.00441965
0.0100436
-0.0329702
0.513788
0.0340542
0.00538153
-0.00730547
0.3656
0.0362292
0.0102241
0.00792677
0.45232
0.0396756
0.0657977
0.00412833
0.356289
0.0507701
0.0136296
0.363237
-0.166328
-0.119713
0.108904
-0.133566
-0.165029
0.122223
-0.175312
-0.240012
-0.176869
-0.164376
0.127773
-0.115257
-0.126117
-0.153176
-0.12339
-0.058502
0.0879723
-0.0490683
-0.0303364
0.0489885
-0.0679835
0.00156612
0.136837
-0.0322509
-0.0502057
0.0563588
0.0637789
-0.0619048
0.0721475
-0.0968172
0.022779
-0.0154097
0.046304
-0.0372974
0.0150257
-0.0401659
-0.0442251
-0.0330627
-0.0661906
-0.0265145
0.0497314
0.0318113
-0.04071
-0.0638922
0.0354724
0.0647035
-0.0286372
-0.016999
0.0314652
-0.0724279
0.0507214
-0.0334698
-0.0725115
0.0337984
-0.0309233
0.0526369
-0.0901698
0.0426539
0.0144887
-0.0394847
-0.00744874
-0.0178277
-0.0309427
-0.0339504
-0.00772712
0.0658013
-0.0277722
-0.0377506
-0.00657579
0.0826636
-0.0450631
-0.0387518
-0.00500999
0.0735192
-0.0422404
-0.0328445
-0.00144663
0.0829088
-0.0395745
-0.0468979
0.00182334
0.0818444
-0.0389166
-0.0461976
0.00473099
0.0790634
-0.0373812
-0.0445899
0.00774885
0.0865515
-0.0421779
-0.0473913
0.0079998
0.0729898
-0.0330477
-0.0401928
0.00736614
0.0853585
-0.0407031
-0.0440212
0.00452135
0.0696571
-0.0298697
-0.036942
-0.0238057
0.0898525
-0.0298527
-0.0316726
0.00157415
0.0812097
-0.0622044
-0.0443849
-0.000572302
0.0707498
-0.0384788
-0.0301244
-0.0284195
0.082152
-0.0296759
-0.0246291
-0.00675352
0.0714052
-0.0364763
-0.0565951
-0.00870619
0.070681
-0.0310535
-0.0376751
-0.032988
0.0655492
-0.0179902
-0.0232771
-0.0338032
0.0586788
-0.0354605
-0.0224032
-0.00706425
0.0356302
-0.0338455
-0.0285233
0.0279348
-0.0252541
-0.00206557
-0.00767608
0.0341587
0.0229274
-0.0230283
-0.00612238
0.0158077
0.0804649
-0.0464361
-0.0156778
-0.0105369
0.0833349
-0.0442545
-0.0127358
-0.0379293
0.063291
-0.0282747
-0.00762418
-0.0409585
-0.0252133
0.00726581
0.0209757
-0.0483626
0.00263834
0.00411626
0.000646872
-0.0414491
-0.00901974
0.0159031
-0.0138009
-0.0252895
-0.00669198
-0.0155035
0.0060313
-0.0167252
-0.00434759
-0.0128774
0.00865778
-0.00887274
0.0063457
-0.00744506
-0.00675521
-0.0137846
-0.00464907
0.00523887
0.00432108
-0.00805018
-0.00809839
0.00753764
-0.00424884
0.00522629
-0.00597521
-0.00103814
0.00140921
-0.00473808
-0.000374211
-0.00192762
-0.00193961
0.005328
0.00116784
-0.00493032
-0.000312699
-0.0013511
-0.00440579
0.00610186
0.00180878
-0.00381753
0.00125946
-0.00187486
-0.00293561
0.00547537
0.00201545
-0.00329583
0.00097138
-0.00132038
0.00201259
0.0044257
-0.00246642
-0.00337675
0.00597831
0.00262226
-0.00321182
0.00109243
-0.00144724
0.00214213
0.00497393
-0.00267077
-0.00364509
0.0066737
0.00238629
-0.00327353
0.00104164
-0.00152241
0.00217683
0.00482452
-0.00270506
-0.00326496
0.00617292
0.00262855
-0.00335983
0.00139958
-0.0015154
0.00151342
0.00338113
-0.00203177
0.00129197
0.00303893
-0.00287624
0.00110685
0.00402817
-0.00386375
0.0023667
0.00524387
-0.00495572
-0.00130507
0.00240634
0.00606539
-0.00480092
0.00123041
-0.0014035
0.000448637
-0.000345422
0.00207525
0.00558142
-0.00480327
0.00297805
0.00582673
-0.00602906
0.0040543
0.00761137
-0.00723187
0.00559753
0.00735186
-0.00705862
0.00621026
0.00396002
-0.00363168
0.00429429
0.000444491
0.0147423
-0.0129767
0.0175813
-0.0150543
0.00409264
0.0111973
-0.00275378
-0.00147971
0.00263071
0.00106148
-0.0185764
0.0302688
-0.0142355
-0.0123946
-0.0104314
0.00641209
-0.0302186
0.00532979
-0.00461503
0.00390244
-0.040121
0.0106127
-0.00140077
-0.053324
0.0146531
-0.0385359
0.00958874
0.0203718
-0.0229525
-0.0545287
0.018573
-0.0437548
0.016468
0.0397263
-0.0549309
-0.0508982
0.0223478
-0.0347495
0.0180582
0.0459806
-0.0603061
-0.0444445
0.0240204
-0.022349
0.0187831
0.0352589
-0.0555567
-0.0292476
0.0271964
-0.0146988
0.0148584
-0.0347179
-0.0507883
0.0284649
0.0339008
-0.0571296
-0.0394995
0.0280097
-0.0114165
0.0122315
-0.0280245
-0.056128
0.0313296
0.0505113
-0.0772309
-0.0321147
0.0308095
-0.0175806
0.0192485
-0.0275694
-0.0657
0.0283344
0.0463465
-0.0748263
-0.0256474
0.0265573
-0.0106722
0.0165726
-0.00367748
-0.0608755
0.0197434
0.000724419
-0.0667221
0.0201544
0.00569322
-0.0660032
0.018714
0.00761672
-0.0600232
0.0194024
0.0136078
0.000516916
-0.0224107
0.0159011
0.00505139
0.00941039
-0.0100307
0.00978555
-0.00213053
-0.028251
0.0208636
-0.00196857
-0.0535911
0.0196689
0.0398249
-0.058387
-0.00321207
0.0198053
-0.00977821
-0.0159456
-0.00435272
-0.0401038
-0.0167835
-0.00308672
-0.0293186
-0.0130981
0.0122775
-0.0133068
-0.00205802
-0.0059704
-0.0024031
-0.0155486
-0.0160181
-0.00321375
-0.00136251
-0.0482148
-0.0203342
0.0171879
-0.0159611
-0.00259005
-0.00506463
-0.00291767
-0.00915573
-0.0221211
-0.00633133
0.0052707
-0.0544659
-0.0230245
0.00027671
-0.0213656
-0.00764278
-0.00156196
-0.0270928
-0.00959729
0.00621767
-0.0449058
-0.020579
0.00148749
-0.0174994
-0.00616161
-0.000403824
-0.0221443
-0.00865012
-0.000693673
-0.0250106
-0.0101902
-0.00120362
-0.0280975
-0.0102849
-0.000320135
-0.0288314
-0.0105904
2.77148e-05
-0.0285018
-0.0103291
8.18884e-05
-0.0285565
-0.0106654
-0.000369595
-0.0249218
-0.0101319
-0.00170213
-0.0227276
-0.00899174
-0.00653584
-0.0176891
-0.00616354
0.00104681
-0.0455127
-0.0206838
-0.000349581
-0.0279146
-0.00990536
-0.00552256
-0.0218999
-0.00746508
0.00610559
-0.0528542
-0.0234826
0.00303072
-0.0281173
-0.00984367
-0.000267921
-0.0232548
-0.00927487
0.0112755
-0.0502001
-0.0246807
0.00246293
-0.0237513
-0.00587947
-0.00419494
-0.018636
-0.00557664
-0.00330035
-0.0318812
-0.0125999
0.00230168
-0.0169227
-0.040904
-0.00115662
-0.0427593
-0.0163489
0.00546455
0.0347181
-0.0368789
-0.00446162
0.0151822
0.00246757
-0.0146094
0.00242366
0.0176043
0.00602099
0.0043333
0.00407953
0.00317038
-0.00051804
0.00811953
-0.00179934
0.000217964
0.0067514
-0.000124883
-0.00281248
0.0011668
-0.00345957
-0.00448288
-0.000217049
-0.0276258
-4.71466e-05
-0.0118833
-0.0122777
-0.00471192
-0.0103477
0.00217927
-0.0237559
-0.0126443
0.00951168
-0.0468423
0.0122292
0.0250633
-0.0142078
-0.0740275
0.0164921
0.0194742
-0.00878223
-0.000786866
0.0160847
-0.0414684
-0.0478579
0.0129793
-0.0396964
-0.0495413
0.0754716
0.0146601
0.0962919
-0.0404581
-0.0575146
0.0118539
-0.0589706
-0.0382308
0.100008
0.00752915
-0.035987
-0.0534243
0.0937361
-0.0163782
0.0848351
-0.0329827
-0.0279457
-0.0164481
0.0477956
-0.0314443
-0.0162819
0.0138197
-0.0471671
-0.0666568
0.0835562
0.0148012
0.0825423
-0.0481356
-0.0353883
-0.00944422
0.0777225
-0.0282316
-0.0252458
-0.00947597
0.0505951
-0.0301716
-0.0203923
-0.00824204
0.0705851
-0.038819
-0.0330006
-0.00409122
0.0575077
-0.0361632
-0.0254962
0.0226481
0.0699601
-0.0404945
-0.056205
0.000888004
0.0704827
-0.0261723
-0.022551
0.000743247
0.0609357
-0.0337959
-0.0269958
0.00109276
0.0616372
-0.0348923
-0.0270955
0.00146446
0.0636168
-0.0360216
-0.0279685
0.00120598
0.061671
-0.0353526
-0.0260612
0.0014034
0.0625147
-0.0358444
-0.0268694
-3.77081e-05
0.0598281
-0.0339428
-0.0244456
-0.0223309
0.0699139
-0.027517
-0.0201051
0.00308853
0.0731728
-0.059839
-0.0387541
0.00551873
0.0643752
-0.0260426
-0.0407629
0.00405101
0.0737348
-0.0305965
-0.0416707
0.00183218
0.0627669
-0.0366395
-0.0239087
-0.0280746
0.0797364
-0.0288052
-0.0210245
-0.0346315
0.0813985
-0.0466795
-0.0281621
-0.00859752
0.0760071
-0.0385387
-0.0635025
-0.0067879
0.0694337
-0.0416606
-0.029583
-0.0298684
0.064295
-0.0239896
-0.0172251
-0.0311082
0.0518633
-0.0315952
-0.0190286
-0.0173222
0.0129935
-0.0220655
-0.00471455
0.012049
-0.0274201
0.00446801
-0.00642007
0.0279625
-0.0368382
0.0217304
-0.000806233
0.0269789
-0.0365337
0.0173307
0.0201865
0.0165406
0.0708297
-0.0442555
-0.0161363
-0.0100167
0.0979339
-0.053965
-0.0174117
-0.0252647
0.0478278
-0.0283281
-0.00425257
-0.0236913
-0.00482073
0.00161864
0.00162781
-0.0472001
-0.0248014
0.0240919
0.0242172
0.0110602
0.00495756
-0.0239681
0.0132837
4.3853e-05
-0.0253715
0.0426219
-0.0129924
-0.0160264
-0.0098935
-0.00666874
-1.26883e-05
0.0203088
-0.0214194
0.0061455
0.0246828
-0.0159987
-0.0277246
0.0179646
0.0282617
-0.0218248
0.0061822
-0.0244402
-0.0225983
0.0308684
0.0183447
-0.0145386
0.00898757
-0.0107048
-0.0070085
0.00726419
-0.00749064
-0.00730597
-0.00489654
0.00403323
-0.00225849
-0.00388842
-0.00796802
-0.00251817
0.00280235
0.00278625
0.00479348
-0.00602539
-0.00214087
0.00369916
0.000715891
-0.00779813
-0.00199
0.00490839
0.00273815
0.00500983
-0.00553953
-0.00164113
0.00372451
0.000935258
-0.00712656
-0.00136425
0.00447147
0.00237794
0.00499035
-0.00483411
-0.000989344
0.00344523
0.00116959
-0.0070501
0.00322292
0.00134647
0.00149091
0.00299616
-0.00360708
0.00578501
0.00819554
-0.00500815
-0.0012352
0.00120914
0.0042869
0.0015229
-0.00686613
-0.00111656
0.00442723
0.00231853
0.00487518
-0.00414929
-0.00084098
0.00332929
0.00126786
0.00152949
0.0029206
0.0013815
-0.00794535
0.00550644
0.00191571
0.00205198
0.00340706
-0.0041433
0.00600192
0.00887151
-0.00529431
-0.000692584
0.00109591
0.00416113
0.00143688
-0.00717866
0.00327326
0.00188489
0.00132713
0.00251859
-0.00368941
0.00247619
0.00773178
-0.00465091
0.00284099
0.00922782
-0.00556576
0.00362218
0.0110093
-0.00654905
0.00440556