/*--------------------------------*- C++ -*----------------------------------*\
  =========                 |
  \\      /  F ield         | OpenFOAM: The Open Source CFD Toolbox
   \\    /   O peration     | Website:  https://openfoam.org
    \\  /    A nd           | Version:  7
     \\/     M anipulation  |
\*---------------------------------------------------------------------------*/
FoamFile
{
    version     2.0;
    format      ascii;
    class       volVectorField;
    location    "18.9";
    object      U;
}
// * * * * * * * * * * * * * * * * * * * * * * * * * * * * * * * * * * * * * //

dimensions      [0 1 -1 0 0 0 0];

internalField   nonuniform List<vector> 
15142
(
(0.551269 0.354461 1.21003)
(0.303757 0.210765 1.20544)
(-0.057139 0.31911 0.776302)
(0.0442118 0.154207 0.826124)
(0.0890464 0.0493369 0.801539)
(0.0883368 0.0308113 0.725217)
(0.0691245 0.042298 0.573363)
(0.0203679 0.0644422 0.458214)
(-0.174936 0.193558 0.185914)
(-0.327944 0.261199 -0.0817887)
(-0.346434 0.295823 -0.190463)
(-0.257184 0.283582 -0.014863)
(-0.0744749 0.190585 0.2145)
(-0.000709419 0.0742023 0.362687)
(0.0213218 0.0409199 0.372807)
(0.0296848 0.0240157 0.367981)
(0.0378363 0.0183077 0.377819)
(0.0322674 0.0186747 0.364129)
(0.0325951 0.0202418 0.353352)
(0.0371071 0.0195373 0.376394)
(0.0328369 0.0211019 0.367893)
(0.0337977 0.022271 0.367631)
(0.0414091 0.0159872 0.398514)
(0.0407802 0.010353 0.39686)
(0.0668061 -0.0209176 0.3864)
(0.128837 -0.121523 0.245735)
(0.14103 -0.297461 0.00145567)
(0.0469157 -0.367711 -0.108833)
(-0.074293 -0.642877 -0.172521)
(-0.137894 -1.03314 -0.322294)
(-0.25911 -1.16985 -0.291938)
(-0.372259 -1.31797 -0.303301)
(-0.524144 -1.52061 -0.323855)
(-0.621704 -1.53493 -0.263967)
(-0.754776 -1.54285 -0.186151)
(-1.00269 -1.84789 -0.513655)
(-1.24128 -2.22914 -0.941493)
(-1.6355 -2.5615 -1.58002)
(-1.97724 -2.69145 -1.98029)
(-2.28757 -2.83573 -2.06044)
(-2.84678 -3.07818 -2.76478)
(-3.26511 -2.99077 -3.23217)
(-3.49299 -2.89051 -3.47459)
(-3.79525 -2.92673 -4.32937)
(-3.91657 -2.55319 -4.83618)
(-3.70764 -1.91458 -5.08096)
(-3.69098 -1.82882 -5.87871)
(-3.51582 -1.08301 -6.27571)
(-2.95116 -0.0425525 -6.43581)
(-2.76106 0.361176 -6.70112)
(-1.67857 1.78215 -6.61627)
(-1.30218 1.89819 -6.71491)
(-0.238176 2.77341 -6.81554)
(0.225001 2.75976 -6.88561)
(0.80199 2.99212 -7.68913)
(0.183963 2.06674 -8.19639)
(-1.11085 1.81569 -6.22787)
(-0.736866 2.01579 -7.16983)
(-1.35415 1.4973 -7.47262)
(-2.10772 1.77903 -6.13551)
(-1.51993 1.94529 -6.49294)
(-1.43678 1.85775 -6.51776)
(-1.41695 2.39849 -6.12879)
(-0.617772 2.55794 -6.53546)
(-0.122951 2.43771 -6.46749)
(0.657414 2.91132 -6.40265)
(1.53363 2.99675 -6.25776)
(2.36918 2.85528 -5.86764)
(2.92854 2.84167 -5.74643)
(3.30356 2.26379 -5.07263)
(3.63118 1.51553 -4.5286)
(1.85826 0.614944 -4.73387)
(-2.19146 1.59273 -5.58353)
(-2.27908 2.44893 -5.4626)
(-1.93524 2.53094 -5.51782)
(-1.41169 2.64092 -5.92275)
(-1.14438 2.36353 -6.64848)
(-1.6068 2.15935 -7.0583)
(-0.726266 2.45095 -6.82099)
(0.160214 2.44906 -6.40875)
(-0.0917618 2.46042 -7.81135)
(0.558031 2.72793 -7.19583)
(1.29656 2.40525 -6.72159)
(1.13718 1.82811 -7.20784)
(1.05873 2.22307 -7.39448)
(1.61069 1.99763 -7.03739)
(1.45158 1.55887 -7.56131)
(1.205 1.78969 -7.5015)
(1.47652 1.46539 -7.45324)
(1.16252 1.82389 -7.61281)
(1.6123 1.2644 -7.43915)
(1.16773 1.72794 -7.42875)
(1.7684 1.25801 -7.62297)
(1.41656 1.59951 -7.41705)
(1.83924 1.25295 -7.49246)
(1.6287 1.4221 -7.50784)
(2.08882 1.57315 -7.0967)
(2.41366 0.993812 -7.26758)
(2.07828 0.918044 -7.35929)
(2.46473 1.19351 -6.78345)
(2.88965 0.48989 -7.04769)
(2.66132 -0.130284 -7.33336)
(2.64229 -0.152573 -7.10107)
(2.67465 -0.729439 -7.75051)
(1.84198 -0.199414 -7.68936)
(2.3607 0.559123 -6.18975)
(2.82157 -0.430908 -5.9967)
(2.47723 -0.806049 -5.95528)
(1.97351 -1.09895 -6.5642)
(0.719726 2.52032 -6.50426)
(1.29908 3.76005 -5.32025)
(1.98127 3.77096 -5.34837)
(2.65431 2.72193 -5.98335)
(3.2467 1.99146 -6.26746)
(3.23272 1.22012 -6.34999)
(3.17733 0.181297 -6.65959)
(2.55015 -0.78854 -6.95137)
(1.9819 -1.10261 -7.45622)
(1.65976 -1.62556 -8.33362)
(1.46855 -1.84368 -7.24179)
(1.25962 -1.53933 -7.44103)
(1.92993 -1.17846 -6.5923)
(2.06539 -1.44182 -6.09908)
(1.52638 -1.1925 -6.65204)
(2.04845 -0.952422 -6.53659)
(1.99424 -1.23852 -6.4954)
(1.59946 -1.17695 -6.52296)
(1.8491 -0.902898 -6.36816)
(1.55644 -0.864523 -6.06641)
(1.85181 -0.658059 -6.45203)
(1.14009 -1.0861 -6.73359)
(1.72633 -0.301627 -7.72706)
(1.7083 -0.698536 -7.70918)
(2.05464 -0.872109 -6.47613)
(1.92518 -1.31266 -6.65495)
(2.16779 -1.09249 -7.16027)
(2.27421 -1.52866 -6.92793)
(1.73199 -1.8654 -6.82513)
(1.41085 -1.88262 -6.95996)
(1.31745 -2.59794 -6.40149)
(0.391336 -2.92835 -6.99065)
(-0.297329 -2.88344 -7.02219)
(-0.913056 -3.0906 -6.08714)
(-1.82865 -3.25966 -6.11393)
(-2.67452 -3.0284 -5.79515)
(-3.31009 -2.83469 -5.23905)
(-3.55156 -2.55003 -4.50271)
(-3.6298 -2.2901 -3.5267)
(-3.78913 -2.10309 -3.30876)
(-3.6222 -1.42508 -3.17062)
(-0.42935 -0.37345 -2.95398)
(2.88398 -1.15953 -3.36784)
(2.20381 -2.94309 -5.71594)
(0.927236 -3.7553 -6.59485)
(-0.587044 -3.89408 -6.51365)
(-1.95214 -3.47912 -6.08342)
(-3.00052 -2.51644 -5.25549)
(-3.15298 -1.59452 -4.42885)
(-2.18799 -0.862081 -1.44642)
(-1.94306 0.0603548 0.0219226)
(-1.1617 0.376681 0.242437)
(-0.43865 0.406845 0.678965)
(0.612133 0.121548 1.56394)
(0.501198 0.526745 1.64954)
(0.850216 0.0588755 2.79931)
(-0.391631 -2.25911 -0.097075)
(-0.421788 -1.54565 0.369716)
(-1.03365 -2.48898 -3.75945)
(-1.04656 -3.44441 -4.90723)
(-0.775642 -4.51835 -6.13965)
(-0.690426 -4.53434 -5.83887)
(-0.445859 -4.10136 -4.71549)
(0.0191003 -3.82184 -4.99328)
(0.47342 -2.82632 -4.35544)
(-0.140293 -1.33197 -2.48392)
(-1.93624 1.33408 -1.0581)
(-3.06801 0.32224 -0.595978)
(-3.06629 -0.726757 -0.704896)
(-1.12953 -0.148827 1.78742)
(-1.4293 -2.05448 -1.49881)
(-1.08001 -2.18641 -3.76187)
(-0.69884 -2.42549 -5.32718)
(-1.70135 -1.92156 -6.15233)
(-1.47027 -2.67054 -6.49774)
(0.128074 -3.37779 -6.146)
(0.751088 -2.7817 -6.33252)
(-0.0474727 -1.84983 -6.91131)
(0.268916 -2.78445 -7.19745)
(1.72162 -3.37251 -6.54573)
(1.66393 -1.93651 -6.47049)
(1.12605 -0.844788 -6.72284)
(1.06127 -1.79576 -6.87803)
(2.34715 -2.44591 -6.62383)
(1.92527 -1.19876 -6.65792)
(1.49061 -0.0772593 -7.02389)
(0.6529 -0.531682 -7.12769)
(2.14264 -2.04633 -6.74429)
(1.86311 -0.655027 -6.91915)
(1.28706 -0.756926 -6.85722)
(1.98001 -1.69539 -6.55926)
(1.60054 -0.550105 -6.81946)
(0.969848 -0.476994 -6.62497)
(2.06426 -1.57614 -6.63513)
(1.63562 -0.349504 -6.5913)
(0.795446 -0.41844 -6.44507)
(2.03949 -1.55206 -7.07201)
(1.38836 0.478382 -7.14628)
(0.20925 -0.162465 -6.89707)
(0.854697 -1.0196 -6.85684)
(2.20454 -1.40618 -6.56108)
(1.35273 0.517183 -7.09826)
(0.110021 -0.0827769 -6.79219)
(0.432873 -0.982056 -6.74323)
(2.20945 -1.4013 -6.57628)
(1.08652 0.154775 -7.14681)
(0.11368 -0.578138 -7.07365)
(1.3149 -1.04842 -6.75787)
(2.75811 -1.1886 -6.31205)
(2.37197 -0.43447 -6.86771)
(1.26537 -0.343396 -6.8951)
(1.74108 -0.685818 -6.45007)
(2.36727 -0.197211 -6.00122)
(2.31253 0.310108 -5.41425)
(2.55042 1.33686 -5.02351)
(1.84234 2.88926 -5.25901)
(1.06871 2.78808 -4.95153)
(1.13658 2.32398 -4.53668)
(-0.204103 2.17815 -4.6631)
(-0.809286 1.52237 -5.41649)
(-0.646005 -0.397231 -6.17863)
(0.0520739 0.417915 -5.09045)
(0.507433 1.20488 -4.47241)
(2.32996 1.10592 -4.12073)
(2.40787 0.222718 -2.17526)
(3.86248 0.980648 -3.83116)
(4.8654 -0.412993 -4.82158)
(4.5246 -0.8402 -5.68773)
(3.71808 -1.21204 -5.96919)
(4.35332 -1.44083 -5.11883)
(3.92053 -1.49983 -5.40126)
(3.00687 -1.48049 -5.78807)
(3.3445 -1.772 -4.74436)
(2.90108 -1.635 -5.43591)
(2.85746 -1.60215 -5.90993)
(3.04423 -1.98509 -4.70639)
(2.90388 -1.91268 -5.4061)
(2.68751 -1.49686 -6.06304)
(2.85016 -2.23449 -5.38295)
(2.29633 -1.82818 -5.95196)
(2.99309 -2.5616 -5.55664)
(2.41232 -1.99618 -5.95983)
(3.01753 -2.79768 -5.83693)
(2.48065 -1.94221 -6.11304)
(2.98491 -2.85007 -6.13892)
(2.37418 -2.50455 -6.34177)
(2.8693 -3.18326 -6.31835)
(3.37613 -3.85466 -5.48706)
(3.55093 -4.3387 -4.18566)
(3.39831 -3.6089 -5.17335)
(3.71419 -4.06169 -3.76829)
(3.51582 -3.36354 -4.87597)
(3.68673 -3.55209 -3.42238)
(3.43113 -2.8754 -4.60774)
(3.73211 -3.06184 -3.18938)
(3.41682 -2.57008 -4.43829)
(3.59513 -2.39648 -3.2751)
(3.91079 -2.00227 -1.82286)
(3.59659 -2.76982 -2.17389)
(3.73191 -3.51228 -1.76872)
(3.63281 -3.93691 -2.75651)
(3.70988 -4.59806 -2.86314)
(3.50269 -4.59297 -3.67697)
(3.50486 -4.51115 -4.51588)
(3.1131 -4.01122 -5.66289)
(2.58817 -3.39102 -6.47781)
(2.778 -4.25961 -5.88401)
(3.29621 -4.73143 -4.74585)
(3.54351 -4.99495 -3.79208)
(3.33275 -4.85921 -4.25094)
(2.94094 -4.62426 -5.0043)
(1.98824 -4.16461 -6.00028)
(2.11713 -4.44394 -5.1642)
(3.04388 -4.79478 -4.32575)
(3.36987 -5.03031 -3.8471)
(3.45874 -5.10212 -3.41484)
(3.27697 -4.88241 -3.41693)
(2.86414 -4.59007 -3.44309)
(1.99064 -4.17331 -3.91971)
(0.617875 -3.60909 -4.83104)
(0.586137 -3.34619 -2.72007)
(1.39944 -3.67138 -1.79505)
(2.00702 -3.91742 -1.03468)
(0.672949 -3.19012 -0.104587)
(-0.451754 -2.85724 -0.175225)
(-0.619521 0.486907 4.00085)
(-0.625796 0.413551 5.59944)
(-0.350244 0.446367 5.4514)
(-0.0327034 0.832764 4.54001)
(0.285137 1.01125 2.90818)
(-0.192889 1.07383 1.08619)
(-0.609435 -3.22434 -3.52055)
(-0.85796 -3.96356 -4.31795)
(-0.936305 -4.57625 -4.78671)
(-0.904663 -4.8634 -5.1521)
(-0.945943 -4.80118 -5.11999)
(-0.888209 -4.64437 -4.9521)
(-0.718962 -4.98143 -5.89867)
(-0.629133 -5.05578 -6.09167)
(-0.433806 -4.9576 -6.4291)
(-0.479536 -4.96429 -6.32494)
(-0.549055 -4.87983 -6.26453)
(-0.482795 -4.2275 -5.10014)
(-0.337503 -4.64718 -5.57956)
(-0.315429 -4.78585 -5.74408)
(0.101452 -4.12212 -4.49473)
(1.07695 -2.08182 -1.4683)
(1.09178 -1.47402 0.522054)
(0.840133 -0.782572 2.23986)
(0.358159 -0.801054 3.26153)
(0.64303 0.0483266 2.72152)
(0.398099 0.203739 2.97941)
(0.495949 0.122204 3.06155)
(0.402519 0.144005 2.54691)
(0.685913 0.160121 2.01897)
(0.632428 0.0738383 1.78195)
(0.522569 0.133875 1.76799)
(1.02666 0.163676 1.71112)
(1.47256 0.226544 1.36623)
(1.26701 0.185231 0.871546)
(0.798502 0.419768 0.83284)
(0.421089 0.266381 0.687828)
(0.218891 0.114839 0.762862)
(0.187638 0.0836258 0.83668)
(0.150938 0.0555872 0.69203)
(0.0723748 0.0596874 0.439307)
(-0.0942033 0.203582 0.182146)
(-0.317642 0.296704 -0.198619)
(-0.376325 0.232382 -0.251885)
(-0.33562 0.26405 -0.249768)
(-0.207936 0.22281 0.0490971)
(-0.0135666 0.136861 0.344987)
(0.056052 0.0542757 0.428181)
(0.0557377 0.0400459 0.384137)
(0.0606623 0.0295775 0.367386)
(0.0685875 0.0268993 0.367197)
(0.0578962 0.0317822 0.349892)
(0.0583142 0.0354749 0.33923)
(0.0648856 0.0338887 0.363935)
(0.0569781 0.0383234 0.353325)
(0.0573446 0.0419068 0.354956)
(0.066227 0.0394732 0.388899)
(0.059198 0.0503313 0.40099)
(0.0737215 0.0453005 0.429685)
(0.0844469 0.025093 0.327982)
(-0.0153619 0.0430526 0.0659259)
(-0.143375 0.195982 -0.0255384)
(-0.23777 0.145989 -0.150593)
(-0.14751 0.0122907 -0.0899816)
(-0.145483 -0.247132 0.0570389)
(-0.118346 -0.325602 0.0540423)
(-0.172251 -0.540896 0.188248)
(-0.301776 -0.578269 0.304101)
(-0.36793 -0.219031 0.412647)
(-0.212797 0.0161828 0.399856)
(-0.438456 -0.755861 0.144205)
(-0.911592 -1.44253 -0.337975)
(-1.20529 -1.82474 -0.824592)
(-1.57813 -2.10342 -1.1155)
(-2.27163 -2.74216 -1.34767)
(-2.86089 -2.8695 -1.65429)
(-3.21398 -2.88132 -1.86476)
(-3.7673 -3.07553 -2.60633)
(-4.12153 -2.81712 -3.14319)
(-3.8611 -2.07741 -3.48945)
(-3.78979 -1.79343 -4.13762)
(-3.8028 -1.28964 -4.42714)
(-3.10285 -0.0188129 -4.84755)
(-2.91104 0.267057 -5.03585)
(-1.74977 1.7654 -4.97342)
(-1.35684 1.94411 -5.13715)
(-0.224231 2.91073 -5.24094)
(0.148255 2.8457 -5.41866)
(0.647154 3.17759 -5.87773)
(-0.362763 2.10738 -5.97176)
(-1.28203 1.91825 -4.94318)
(-0.857016 2.1892 -5.74682)
(-1.34925 1.62414 -6.05825)
(-2.15292 1.89527 -5.12425)
(-1.55222 2.07633 -5.22561)
(-1.53966 1.95122 -5.20973)
(-1.46268 2.5314 -4.98229)
(-0.634814 2.65674 -5.21307)
(-0.278001 2.48367 -5.24012)
(0.55401 3.07433 -5.11952)
(1.47014 3.17812 -5.04348)
(2.51815 3.02836 -4.65693)
(3.16533 3.00111 -4.6222)
(3.45083 2.20987 -3.49359)
(4.04599 1.15348 -3.41096)
(0.294604 0.265715 -3.42939)
(-2.10143 1.46052 -3.51855)
(-2.20103 2.43614 -4.32485)
(-1.85957 2.61962 -4.39294)
(-1.13842 2.78143 -4.68545)
(-0.817643 2.49765 -5.28337)
(-1.70032 2.21333 -6.12126)
(-0.845692 2.50609 -5.71799)
(0.195655 2.54 -5.33747)
(-0.00993357 2.46553 -6.63103)
(0.557903 2.87219 -5.93634)
(1.40337 2.51643 -5.32764)
(1.35594 1.95626 -5.6531)
(1.22135 2.36299 -5.58982)
(1.74333 2.12215 -5.56399)
(1.6179 1.6939 -5.81783)
(1.35981 1.9366 -5.80472)
(1.55929 1.64544 -5.7676)
(1.2453 1.95625 -5.96856)
(1.65184 1.38568 -5.80633)
(1.28039 1.77685 -5.80051)
(1.89125 1.35845 -5.99007)
(1.59736 1.69452 -5.75856)
(1.97324 1.43709 -5.83551)
(1.75793 1.61401 -5.85739)
(2.18844 1.7499 -5.64577)
(2.53136 1.18767 -5.63814)
(2.16327 1.18788 -5.72624)
(2.58885 1.34587 -5.44646)
(3.06452 0.634505 -5.62899)
(2.70423 0.0958943 -5.95856)
(2.86498 0.0339254 -5.67779)
(2.89512 -0.556086 -6.14583)
(1.91223 0.0177865 -6.20047)
(2.48479 0.72734 -5.10857)
(2.95299 -0.23294 -5.06963)
(2.59051 -0.806651 -4.9767)
(1.84852 -1.1451 -5.33521)
(0.642134 2.13885 -4.96344)
(1.1806 3.67729 -4.38049)
(1.96952 3.95588 -4.24924)
(2.6613 2.72351 -4.28225)
(3.34857 2.01902 -5.00678)
(3.40683 1.23318 -4.97171)
(3.31366 -0.0153961 -5.40753)
(2.72672 -0.893759 -5.68765)
(2.1924 -1.10178 -6.34387)
(2.06803 -1.68214 -7.19308)
(1.71707 -1.88845 -6.31488)
(1.35759 -1.66028 -6.55973)
(2.12347 -1.13949 -5.93287)
(2.18834 -1.49241 -5.20416)
(1.56454 -1.39774 -5.87932)
(2.27723 -0.980736 -5.65649)
(2.16616 -1.36438 -5.65597)
(1.65807 -1.28546 -5.70312)
(2.12216 -0.945063 -5.42179)
(1.76532 -0.871359 -4.98967)
(2.0512 -0.740401 -5.39486)
(1.11752 -1.26566 -5.57309)
(1.76898 -0.463265 -6.115)
(1.56723 -0.970157 -6.25006)
(2.01159 -1.17741 -5.10822)
(1.86589 -1.66799 -5.44483)
(2.22452 -1.37011 -5.73362)
(2.36143 -1.74173 -5.38427)
(1.78307 -2.01362 -5.22537)
(1.56871 -1.96674 -5.3022)
(1.44762 -2.69765 -4.97325)
(0.464217 -3.02044 -5.19415)
(0.00194801 -2.97818 -5.20833)
(-1.07735 -3.29075 -4.74564)
(-2.07568 -3.46437 -4.57382)
(-2.91309 -3.13725 -4.27951)
(-3.69223 -2.83408 -3.66583)
(-3.78972 -2.48888 -2.80047)
(-3.7608 -2.08633 -1.64054)
(-3.90227 -1.83917 -1.52353)
(-3.26832 -0.727808 -0.698874)
(0.345176 0.000635645 -0.665248)
(3.77354 -0.925339 -0.998315)
(3.34103 -2.25503 -1.80715)
(1.4933 -3.57288 -3.44307)
(-0.477198 -3.50406 -4.22219)
(-2.61261 -2.78606 -3.46231)
(-3.72445 -1.61096 -1.96722)
(-4.00896 -0.643978 -0.932504)
(-2.86163 0.0932254 0.442562)
(-1.94696 0.447042 0.731915)
(-1.36344 0.610874 0.687703)
(-0.63319 0.571185 0.91476)
(-0.00493845 0.446689 0.8962)
(0.117389 0.210761 0.857605)
(0.234547 0.272004 0.806526)
(0.38967 0.422056 0.940439)
(-0.406742 0.636034 0.95128)
(0.39613 0.377377 0.909399)
(1.10699 0.0425041 1.20348)
(1.92432 -0.0754728 1.10902)
(2.38959 0.255768 1.02961)
(1.73377 0.344202 0.883895)
(1.32275 0.34974 0.774785)
(1.04867 0.384377 0.766718)
(0.500835 0.278555 0.542305)
(0.143564 0.121789 0.27836)
(-0.114105 -0.0455751 -0.117194)
(-0.243012 0.124388 -0.125304)
(-0.281194 0.108891 -0.248357)
(-0.19791 -0.0290098 -0.156007)
(-0.0296394 -0.0925133 -0.1283)
(0.0135684 -0.0203468 0.153923)
(0.125285 -0.0444267 0.336135)
(0.0993192 -0.0159865 0.364317)
(0.118321 0.0327526 0.356396)
(0.0918409 0.0376489 0.336985)
(0.102911 0.0329445 0.322431)
(0.0892682 0.0456182 0.310602)
(0.0892407 0.0558575 0.303521)
(0.0965071 0.0465756 0.320823)
(0.0901436 0.0558078 0.314698)
(0.0876921 0.0638742 0.320016)
(0.09229 0.062556 0.342481)
(0.078404 0.0841624 0.360707)
(0.0800523 0.113466 0.389642)
(0.0187334 0.170676 0.242752)
(-0.196558 0.240083 -0.0897312)
(-0.224013 0.135309 -0.182952)
(-0.0951591 0.0134612 0.0707692)
(-0.0423862 -0.017566 0.259888)
(-0.104363 0.106062 0.20957)
(-0.199594 0.256909 0.0267122)
(-0.075769 0.346345 -0.11652)
(0.10025 0.145433 0.0646316)
(-0.0479037 -0.399878 0.171267)
(-0.138981 0.473071 0.122805)
(-0.200807 0.521371 -0.0825228)
(-0.145226 0.789581 0.0531358)
(0.0191341 1.16437 0.0983926)
(0.0756508 1.22732 0.0854217)
(0.787173 0.585064 -0.223401)
(-0.53707 -1.22226 -0.827303)
(-1.36792 -2.07845 -0.748676)
(-2.05377 -2.46228 -0.971405)
(-2.52564 -2.53029 -1.07815)
(-3.26083 -2.74546 -1.55229)
(-4.16553 -2.87848 -2.3217)
(-3.95713 -1.86922 -2.59349)
(-3.73727 -1.07909 -3.14943)
(-4.01249 -1.08869 -3.49355)
(-3.22514 0.410381 -3.86484)
(-3.12284 0.486558 -3.96843)
(-1.91823 1.96252 -3.8219)
(-1.63863 2.15976 -3.87262)
(-0.452226 3.0849 -4.15467)
(-0.354143 3.02726 -4.25792)
(0.121282 3.10198 -4.62036)
(-0.796543 2.2581 -4.48209)
(-1.53923 2.249 -3.85207)
(-1.17571 2.51509 -4.44534)
(-1.25478 2.3007 -3.77889)
(-1.48034 1.97529 -4.83039)
(-2.2112 2.24293 -4.10891)
(-1.6891 2.44267 -4.07079)
(-1.79019 2.32551 -4.03346)
(-1.62765 2.87006 -3.94579)
(-0.729955 2.85798 -4.15747)
(-0.618418 2.75392 -4.14903)
(0.1249 3.37877 -4.16263)
(1.02582 3.61556 -3.92458)
(2.07961 3.41168 -3.57641)
(3.06058 2.96972 -2.34449)
(3.25138 2.62335 -2.67459)
(3.7592 2.40095 -2.47909)
(3.94086 1.02105 -2.49783)
(-0.591321 0.164743 -2.48033)
(-2.23657 1.77936 -2.47963)
(-1.66977 2.19056 -2.31553)
(-1.79419 1.98123 -2.69857)
(-1.92305 1.62066 -3.06574)
(-1.42047 0.468991 -3.35336)
(-1.05603 1.01663 -2.8398)
(-1.64084 0.861341 -3.16976)
(-1.93765 0.598762 -3.898)
(-1.87233 -0.725552 -4.13848)
(0.709439 -1.48091 -3.88137)
(-0.224353 -1.4296 -3.28934)
(-0.405655 -1.31595 -1.74611)
(-0.298137 -1.65279 0.356558)
(-0.292548 -0.326012 1.95027)
(0.163155 -0.870609 3.36944)
(0.378604 -1.02522 4.36116)
(0.51288 -0.670366 5.27022)
(-0.735324 -0.13625 6.83753)
(0.0295271 -0.100883 7.14248)
(-0.151593 0.0132417 7.43803)
(-0.127783 0.17101 7.90807)
(0.308704 0.407987 6.94185)
(-0.08482 -0.20151 5.69946)
(-0.377444 -0.224147 6.85781)
(0.346837 0.0400567 6.18483)
(-0.109572 0.118705 6.07337)
(2.71958 -4.47752 -1.32303)
(2.5891 -4.71567 -1.33057)
(3.3703 -5.06469 -3.19796)
(3.58695 -5.06283 -2.7682)
(3.14477 -4.76517 -1.33761)
(3.36408 -4.22545 -0.597584)
(1.06769 -1.48897 2.47836)
(2.69616 -1.92562 0.782334)
(1.48104 -1.05782 2.46547)
(4.91863 -1.67815 -1.48584)
(4.69344 -1.77679 -2.80891)
(3.77368 -1.90696 -3.16519)
(3.59725 -2.06218 -3.90612)
(5.08666 -2.84325 -2.87508)
(5.29043 -2.82358 -2.58627)
(5.73657 -3.08308 -2.41602)
(5.71958 -3.00598 -2.9706)
(5.9699 -3.33975 -3.20341)
(6.12069 -3.6295 -3.31771)
(6.03201 -3.85505 -3.32364)
(5.74015 -4.41659 -3.36168)
(5.70071 -4.47724 -3.3684)
(5.30216 -5.05765 -3.32063)
(5.28652 -5.10927 -3.31609)
(4.8134 -5.61954 -3.27085)
(4.76398 -5.68805 -3.24977)
(4.39758 -5.9198 -3.24022)
(4.33661 -5.97519 -3.21668)
(4.20189 -5.95142 -3.23694)
(4.17117 -5.92195 -3.23726)
(3.91095 -5.59492 -3.29626)
(4.26052 -5.15418 -3.20467)
(4.48435 -5.11235 -3.13239)
(4.41929 -4.85036 -3.33596)
(4.85996 -4.38097 -2.80595)
(5.07248 -4.36127 -2.60306)
(4.75142 -4.18871 -2.39317)
(4.02348 -3.5235 -1.24667)
(-2.35415 0.505265 1.82306)
(-4.82411 -1.72495 -1.35946)
(-3.384 -4.75366 -3.80758)
(-1.00291 -5.07723 -4.1779)
(2.65611 -4.77753 -4.0912)
(4.79593 -1.18419 0.976344)
(3.67542 -0.299493 1.20497)
(3.73058 0.288542 1.1029)
(2.91749 0.400299 1.17816)
(2.02153 0.437227 0.968163)
(1.36484 0.436607 0.749884)
(0.936399 0.348609 0.614471)
(0.739502 0.279935 0.585695)
(0.34909 0.106734 0.395394)
(0.147828 -0.0334693 0.339943)
(-0.0493212 -0.173882 0.104849)
(0.218255 -0.0712148 0.296666)
(0.082835 -0.150274 0.0617572)
(0.326764 0.00501654 0.291399)
(0.181151 -0.0278466 0.257988)
(0.26372 0.0835014 0.337016)
(0.169271 0.0460176 0.311362)
(0.178874 0.0810588 0.294317)
(0.280337 0.139105 0.318363)
(0.14885 0.0671655 0.274792)
(0.207578 0.0958517 0.284454)
(0.292806 0.14433 0.318503)
(0.14501 0.0757316 0.285789)
(0.17898 0.10088 0.306413)
(0.262231 0.149997 0.338015)
(0.120143 0.12636 0.330103)
(0.0777887 0.210741 0.261746)
(-0.00121597 0.19197 0.234185)
(0.0303215 0.124672 0.320515)
(0.0763004 0.107236 0.357764)
(0.120428 0.270763 0.37776)
(-0.0566466 0.226258 0.135903)
(-0.0712096 0.334465 -0.0945901)
(0.0738627 0.212692 0.358454)
(0.0128963 0.300736 0.329471)
(0.141587 0.50855 0.591994)
(0.115658 0.670137 0.614902)
(-0.0939384 0.997529 0.181685)
(0.0456468 0.999725 0.020694)
(0.185319 1.21971 0.77509)
(0.322169 2.16068 0.573694)
(-1.09375 -0.686087 -0.449427)
(1.73409 2.01632 0.819731)
(-1.4559 -1.76093 -0.330204)
(-2.45038 -1.93369 -0.361576)
(-2.8414 -0.492024 -1.25341)
(-4.02933 -1.09015 -1.91359)
(-3.7035 -0.0275254 -2.26068)
(-3.51742 1.24954 -2.47755)
(-3.23928 1.47582 -2.86114)
(-3.13824 3.09202 -2.9081)
(-2.35911 2.7454 -2.799)
(-2.50858 3.57202 -2.88236)
(-1.43205 3.22089 -3.03412)
(-1.36774 3.13667 -2.7198)
(-1.33141 2.89864 -3.10906)
(-1.95472 2.99244 -2.95839)
(-2.35881 3.28081 -2.86039)
(-1.74741 2.72073 -3.32591)
(-2.23765 3.24721 -3.09479)
(-2.66126 3.67037 -2.95555)
(-2.21705 3.21309 -3.10714)
(-1.95601 3.82528 -3.06035)
(-1.88645 4.19594 -2.89779)
(-1.2388 3.49778 -3.16028)
(-0.743662 4.09223 -3.21249)
(-0.33248 4.48466 -2.97801)
(0.214076 4.34935 -2.61572)
(0.963536 3.84101 -1.99773)
(1.05151 0.915177 -0.918907)
(3.27884 0.307099 -1.19683)
(-0.744272 -0.253946 -0.719366)
(-0.896777 1.15936 -1.32335)
(-0.0335507 2.99509 -1.83843)
(-0.243368 3.4991 -2.3529)
(-1.58505 2.82699 -3.38385)
(-0.832584 3.05712 -3.59536)
(-0.508807 2.80794 -4.15197)
(-0.832455 2.0229 -4.26959)
(-1.35904 2.0989 -5.14289)
(-1.05795 2.64114 -4.73048)
(0.223748 2.88209 -4.02573)
(0.9275 2.71685 -4.58548)
(0.523491 2.59231 -5.40173)
(0.705031 3.08506 -4.74771)
(1.77851 2.81104 -4.02427)
(1.78663 2.30634 -4.22567)
(1.52799 2.59896 -4.27452)
(2.11664 2.4741 -4.30956)
(1.9504 2.00699 -4.55132)
(1.6899 2.2034 -4.64265)
(1.84876 2.00658 -4.5071)
(1.54092 2.23039 -4.63608)
(1.85557 1.71312 -4.31997)
(1.59408 1.98484 -4.32731)
(2.15194 1.681 -4.64726)
(1.93663 1.99871 -4.51988)
(2.21391 1.80493 -4.69464)
(2.05244 2.00797 -4.61741)
(2.51992 2.20983 -4.42268)
(2.74086 1.60349 -4.36332)
(2.48928 1.75344 -4.36698)
(2.93353 1.92227 -4.17009)
(3.2915 1.13221 -4.42906)
(3.00902 0.88407 -4.7081)
(3.29449 0.88035 -4.35683)
(3.12126 0.0540105 -4.82832)
(2.41615 0.688342 -4.85019)
(2.87656 1.19769 -4.15138)
(3.34686 0.383537 -3.95277)
(3.03075 -0.312658 -3.80443)
(1.38984 -0.364613 -3.18287)
(-0.178899 0.549568 -3.72794)
(0.843882 -0.0309179 -4.33988)
(0.47744 0.0201601 -4.60074)
(-0.320992 0.0587705 -5.23383)
(-0.415332 0.658775 -4.80112)
(-0.630982 0.743838 -4.9804)
(-0.560802 -0.0345906 -5.15746)
(-0.271306 -0.406497 -4.92532)
(-0.493604 0.93074 -4.95492)
(-0.264352 2.15047 -4.35544)
(-0.0397396 2.08873 -3.61551)
(1.39646 2.27986 -1.67261)
(2.4444 1.26955 -1.68504)
(4.1723 1.21838 -1.57026)
(5.24334 1.25076 -1.41191)
(5.26557 -1.11394 -1.63158)
(6.02545 -1.8203 -2.62797)
(6.1948 -1.82604 -3.07186)
(6.06683 -1.68164 -3.09484)
(5.65411 -1.71094 -2.90543)
(5.65787 -1.76083 -2.76586)
(5.9372 -1.99599 -2.74624)
(5.53358 -2.2269 -2.58002)
(5.08451 -2.49402 -2.51341)
(5.14097 -2.63366 -2.49493)
(4.96746 -3.13964 -2.4488)
(4.95581 -3.18068 -2.44507)
(4.82043 -3.70048 -2.49464)
(4.41235 -3.76373 -2.4656)
(4.36944 -3.84283 -2.46287)
(4.11316 -4.1698 -2.47229)
(4.11821 -4.17014 -2.51072)
(3.88898 -4.29187 -2.58969)
(3.82947 -4.25583 -2.62001)
(3.63248 -4.34437 -2.72703)
(3.63477 -4.35313 -2.82683)
(3.73175 -5.0204 -3.00871)
(3.68014 -5.00663 -3.07158)
(3.67875 -5.04895 -3.10916)
(3.66762 -4.88527 -3.11945)
(3.67624 -4.85861 -3.1455)
(4.01331 -5.03868 -3.16462)
(4.3736 -5.01067 -3.11281)
(4.28009 -4.18026 -2.58563)
(3.8495 -3.94165 -2.53466)
(3.89682 -3.22338 -1.99131)
(3.1871 -1.15758 -1.11277)
(0.0746915 0.981423 1.28063)
(-2.67567 1.71305 1.53807)
(-2.72263 2.24231 0.987097)
(-2.78234 -3.888 -3.07179)
(-1.21544 -5.00746 -4.01121)
(2.63914 -2.45951 -2.27927)
(2.81783 0.0298802 0.319537)
(3.63729 0.0497344 1.23953)
(3.22943 -0.235853 1.37054)
(3.21413 0.209032 1.18688)
(3.61359 0.296705 1.10868)
(2.6901 0.327027 1.00594)
(1.86669 0.340427 0.852111)
(2.01612 0.357183 1.19992)
(1.93433 0.392155 1.4151)
(1.98598 0.510815 1.71659)
(2.06856 0.611147 1.17158)
(1.49464 0.574474 0.836013)
(1.10502 0.423089 0.66003)
(0.798451 0.278833 0.530954)
(0.5814 0.148716 0.435893)
(0.407154 0.0698877 0.432073)
(0.612391 0.204228 0.438448)
(0.559469 0.203024 0.406551)
(0.4272 0.112019 0.395837)
(0.578803 0.23231 0.405598)
(0.498536 0.223139 0.386748)
(0.383716 0.142058 0.378028)
(0.516566 0.240136 0.381363)
(0.446113 0.24092 0.354966)
(0.336234 0.155739 0.337902)
(0.408699 0.205136 0.389688)
(0.54809 0.284602 0.392494)
(0.462067 0.233178 0.370805)
(0.347116 0.164278 0.350142)
(0.484639 0.241083 0.350237)
(0.398473 0.210559 0.333167)
(0.491099 0.246611 0.372448)
(0.349765 0.178364 0.357728)
(0.419225 0.199279 0.405139)
(0.565425 0.261497 0.404733)
(0.418373 0.27569 0.357369)
(0.298066 0.210724 0.335315)
(0.286322 0.203095 0.338781)
(0.331321 0.197792 0.386904)
(0.402469 0.213891 0.449681)
(0.465649 0.302 0.481808)
(0.468046 0.318886 0.476784)
(0.543459 0.374913 0.575093)
(0.644209 0.528511 0.726451)
(0.655565 0.712075 0.800465)
(0.602056 1.06509 0.835621)
(0.928848 1.10646 0.790116)
(1.59755 1.2621 1.00865)
(1.1727 1.17404 1.20942)
(1.05736 1.33423 1.19978)
(1.70766 1.89126 1.07561)
(2.32884 2.24711 1.1323)
(2.93529 3.17773 0.593842)
(-0.207996 -0.132264 0.301912)
(2.15283 2.98731 0.256501)
(0.441174 4.67347 -1.23316)
(-2.54982 3.75629 -2.65988)
(-3.18964 2.20261 -2.62793)
(-2.82061 5.08566 -3.04747)
(-2.97547 5.2051 -3.12247)
(-3.45079 4.05105 -3.08545)
(-3.72981 4.88662 -3.2105)
(-3.7904 4.93416 -3.21527)
(-3.60274 4.33697 -3.13169)
(-4.11115 4.48667 -3.08006)
(-4.06416 4.44883 -3.06023)
(-3.11266 3.90058 -2.91799)
(-3.88184 4.12002 -2.82236)
(-3.76488 4.15394 -2.8148)
(-2.4738 3.43634 -2.82348)
(-3.28443 4.23107 -2.80795)
(-3.58063 4.85171 -2.73134)
(-3.62355 4.87729 -2.78223)
(-2.94602 4.25996 -2.94488)
(-3.11538 4.85562 -2.80395)
(-3.06312 4.91182 -2.91264)
(-2.92945 5.46051 -2.8522)
(-2.57483 4.73985 -2.9806)
(-2.63344 5.36042 -2.9363)
(-2.75374 5.66114 -2.8558)
(-2.68823 5.5956 -2.86494)
(-2.03764 4.89907 -2.91883)
(-1.94496 5.16494 -2.80425)
(-1.65528 5.00143 -2.54442)
(-1.13657 4.51634 -1.85062)
(-0.494462 1.72778 -0.713907)
(0.379058 2.50579 -1.08292)
(1.54025 3.93439 -1.81048)
(1.88977 4.17606 -2.25202)
(1.97912 4.20417 -2.49233)
(-0.0296361 3.64296 -2.66146)
(0.444139 3.4631 -2.98076)
(-0.447994 2.44624 -3.0827)
(1.18291 3.30073 -2.64375)
(1.92557 3.88334 -2.64254)
(3.43138 4.59423 -2.56393)
(3.6902 4.63743 -2.53771)
(4.14682 4.98026 -2.81761)
(3.25469 4.55281 -2.81638)
(2.86 4.44138 -3.04033)
(1.01184 3.77736 -2.87273)
(1.43084 3.39386 -3.55891)
(2.86809 3.94611 -3.09595)
(2.57219 3.58342 -3.08213)
(2.41678 3.21151 -3.17235)
(3.09122 3.69098 -3.04979)
(3.60842 4.30087 -3.03863)
(3.94962 4.57913 -2.92158)
(4.19323 4.7371 -2.97763)
(4.20629 4.74464 -2.95109)
(4.35118 4.79854 -3.00101)
(3.86683 4.3607 -3.02064)
(3.46839 3.81393 -3.00018)
(2.75878 3.29685 -3.19531)
(2.51551 2.78941 -3.41807)
(2.84372 3.10608 -2.96877)
(2.51209 2.68723 -3.2078)
(3.03384 3.11757 -2.85403)
(3.71177 3.88895 -2.94833)
(4.15779 4.42882 -2.95983)
(4.24493 4.47392 -2.97343)
(4.22918 4.47417 -2.95878)
(4.31826 4.43998 -2.96907)
(3.77832 3.94647 -2.95978)
(2.95404 3.18181 -2.85382)
(2.5316 2.66336 -2.89862)
(1.54695 1.65873 -4.79387)
(2.37119 2.55401 -4.45699)
(1.53849 1.80861 -5.00115)
(1.38629 1.69875 -5.1386)
(1.50822 1.67328 -5.87358)
(1.40286 1.85812 -5.81093)
(1.16633 1.69813 -5.93478)
(1.00114 1.65194 -7.18961)
(1.33492 1.18259 -7.19359)
(1.86177 2.18387 -7.09398)
(2.45212 2.72003 -6.68823)
(3.15507 3.39858 -6.24225)
(3.79008 3.9296 -5.55339)
(4.21902 4.36311 -4.74144)
(4.71352 4.72538 -3.97967)
(4.98377 4.8351 -3.48647)
(4.89622 4.72543 -2.8219)
(2.59087 3.23534 1.00912)
(-0.508098 0.136545 4.25555)
(-0.754048 0.432771 4.18989)
(1.08161 -0.0401646 2.96383)
(5.56904 -1.73903 -1.7828)
(5.61498 -1.49031 -3.20183)
(4.8898 -1.56079 -2.69714)
(4.94334 -1.6269 -3.92214)
(4.37041 -1.80246 -4.29237)
(5.34197 -2.05112 -3.39622)
(5.70868 -2.12844 -2.95614)
(6.28648 -2.20767 -2.74807)
(6.30802 -2.02025 -3.10901)
(6.60352 -2.26057 -3.30567)
(6.78458 -2.48366 -3.39902)
(6.71377 -2.66762 -3.38798)
(6.53321 -3.15457 -3.31435)
(6.48773 -3.1277 -3.40294)
(5.85688 -3.38396 -2.96355)
(5.10084 -3.38514 -3.468)
(5.0023 -3.49636 -3.39599)
(4.51414 -3.99519 -3.70988)
(4.42393 -4.406 -3.31061)
(4.18486 -4.63954 -3.29487)
(3.82228 -4.94025 -3.59211)
(3.61261 -5.08433 -3.67604)
(3.66009 -5.09759 -4.20904)
(3.56822 -5.33538 -4.38605)
(3.57191 -5.39062 -4.37193)
(3.56223 -5.44389 -4.35261)
(3.62314 -5.45031 -4.34712)
(3.76787 -5.47238 -4.48498)
(3.86155 -5.48486 -4.38565)
(3.83048 -5.23379 -3.85565)
(3.8204 -5.09564 -3.53184)
(3.2939 -5.01052 -3.05135)
(0.770401 -4.69373 -2.07494)
(-3.19831 -5.24111 -2.6438)
(-3.0124 -5.34483 -4.43528)
(-0.574572 -5.3298 -4.86194)
(0.0890669 -5.26946 -4.92782)
(1.18065 -4.97641 -4.88992)
(4.4291 0.244381 1.63142)
(3.29521 0.825837 1.75865)
(3.08763 0.814667 1.53341)
(2.26593 0.852377 1.32326)
(1.8584 0.812475 1.09314)
(1.64666 0.721206 1.01077)
(1.28924 0.583485 0.804423)
(0.970992 0.471153 0.654242)
(0.73095 0.322419 0.503068)
(0.887465 0.46682 0.595642)
(0.669159 0.320632 0.467506)
(0.809457 0.443741 0.562537)
(0.602217 0.325064 0.425225)
(0.720106 0.397227 0.498263)
(0.552727 0.276793 0.404635)
(0.636 0.366872 0.58782)
(0.75315 0.425583 0.70245)
(0.897503 0.470993 0.592433)
(0.63596 0.339402 0.455798)
(0.770771 0.405169 0.518093)
(0.573677 0.284921 0.393028)
(0.681864 0.332959 0.45449)
(0.783194 0.353992 0.520752)
(0.579999 0.25193 0.421997)
(0.693869 0.326378 0.615019)
(0.801753 0.359326 0.711501)
(0.954638 0.385068 0.602253)
(0.647341 0.304391 0.448342)
(0.701565 0.32649 0.474384)
(0.467618 0.259481 0.359104)
(0.536088 0.262067 0.401055)
(0.615897 0.284718 0.457366)
(0.685003 0.376523 0.491295)
(0.720019 0.406034 0.494118)
(0.794429 0.457063 0.559436)
(0.934904 0.614604 0.681555)
(0.970749 0.858081 0.738828)
(1.43723 0.907332 0.911023)
(1.66804 1.17801 1.01153)
(2.4332 1.47638 1.27454)
(2.61257 1.60343 1.34212)