/*--------------------------------*- C++ -*----------------------------------*\
  =========                 |
  \\      /  F ield         | OpenFOAM: The Open Source CFD Toolbox
   \\    /   O peration     | Website:  https://openfoam.org
    \\  /    A nd           | Version:  7
     \\/     M anipulation  |
\*---------------------------------------------------------------------------*/
FoamFile
{
    version     2.0;
    format      ascii;
    class       volScalarField;
    location    "18.8";
    object      alpha.water;
}
// * * * * * * * * * * * * * * * * * * * * * * * * * * * * * * * * * * * * * //

dimensions      [0 0 0 0 0 0 0];

internalField   nonuniform List<scalar> 
15191
(
0.0618722
0.0535575
0.0304982
0.00908627
0.00412655
0.00400989
0.00199272
0.000287905
0.00012378
9.59031e-05
9.01854e-05
2.5877e-05
1.3342e-05
3.0162e-06
6.84882e-10
8.64525e-20
1.02314e-28
8.85621e-26
4.15118e-19
8.45262e-18
1.19749e-17
2.89085e-17
1.7581e-16
1.01962e-09
1.13386e-09
8.54136e-20
1.25256e-29
2.03406e-29
6.98293e-30
7.1774e-29
7.95342e-28
2.00732e-31
4.61671e-32
6.16692e-33
1.61416e-33
1.02282e-33
7.14918e-33
2.6605e-28
1.51859e-28
6.71776e-29
4.80912e-29
1.19155e-28
2.37896e-28
5.18773e-28
6.93156e-32
2.22025e-33
3.36173e-32
2.31966e-30
1.05934e-31
1.00989e-33
8.07508e-28
4.31533e-28
2.0052e-28
2.13363e-28
2.40797e-22
9.27083e-22
1.09879e-29
2.50861e-29
2.52321e-29
4.46498e-33
3.31288e-33
6.48856e-33
3.47809e-33
1.73863e-33
7.78278e-34
5.04683e-29
1.262e-29
7.22666e-30
4.72298e-23
7.30458e-24
1.62389e-17
4.69596e-18
4.87835e-16
2.24325e-08
1.41102e-08
1.51337e-16
7.04968e-18
2.3082e-19
4.31364e-26
7.82908e-29
5.10355e-29
7.25827e-29
2.07379e-28
5.0985e-31
1.50036e-30
3.17949e-32
8.4127e-31
1.30015e-32
1.02701e-26
1.77437e-23
1.55128e-23
3.27381e-23
4.86376e-21
5.67282e-25
5.30796e-26
1.79965e-25
9.27771e-24
2.77746e-22
3.34876e-25
5.89625e-34
4.51372e-33
2.86285e-31
9.42565e-46
1.63214e-33
4.39711e-30
1.72503e-31
5.76135e-33
1.24425e-38
5.57825e-39
2.23794e-34
2.19658e-34
7.47593e-37
1.59889e-37
4.71962e-31
5.79658e-29
1.31059e-28
1.0145e-30
6.3099e-37
2.87372e-40
2.48932e-43
6.9687e-37
1.9237e-38
9.65869e-48
1.18445e-36
8.22149e-27
6.07455e-34
1.67494e-43
7.35492e-44
8.81789e-41
1.83634e-39
1.14558e-41
1.30574e-42
3.25355e-42
4.65478e-41
2.11957e-40
2.23383e-31
1.73206e-35
2.79819e-41
1.01697e-36
1.34152e-33
4.37494e-42
1.0469e-34
2.30782e-30
1.21588e-32
1.40995e-34
4.52321e-38
1.56909e-38
8.68361e-36
8.88251e-36
4.91043e-39
1.18577e-38
3.94347e-33
1.89376e-33
6.00936e-32
5.78259e-35
7.8169e-36
1.73987e-25
6.09172e-25
1.93096e-25
3.96933e-25
2.37395e-24
7.17776e-21
3.06397e-20
1.43835e-21
1.08719e-21
4.3165e-20
1.30489e-17
1.31464e-19
5.21167e-23
4.82232e-24
1.53485e-23
1.65664e-20
3.49091e-21
4.9482e-35
1.84531e-44
9.06785e-38
9.4177e-34
6.92347e-46
1.65001e-33
5.44023e-30
1.52367e-32
1.91637e-34
3.02072e-38
1.03781e-38
7.32519e-37
1.336e-37
3.06168e-39
9.0204e-39
9.74452e-38
4.19766e-37
1.1312e-36
3.41049e-37
2.57529e-40
5.37574e-48
1.664e-51
7.45246e-31
7.83726e-31
2.53027e-31
1.09496e-25
7.77809e-23
4.35589e-25
2.63124e-25
1.5456e-24
7.45799e-21
2.95286e-18
4.7194e-20
5.99089e-23
2.61844e-23
3.0364e-23
1.3541e-24
2.04867e-24
2.44269e-23
4.33805e-28
6.61814e-30
6.30936e-30
5.87817e-30
1.66294e-30
4.78038e-38
2.17649e-36
6.02909e-37
2.60487e-37
2.34078e-37
2.00485e-37
1.95736e-37
1.71435e-37
1.85362e-37
7.18771e-37
6.51974e-37
7.61436e-37
3.12063e-36
3.44091e-36
4.54282e-36
9.36969e-37
2.80828e-34
2.11612e-34
3.23032e-33
5.88367e-30
1.54692e-30
1.66335e-32
2.17002e-33
1.27863e-32
5.28663e-33
4.84852e-34
1.35533e-34
1.61889e-34
4.14667e-34
4.13974e-39
3.48699e-34
1.39766e-33
6.87263e-35
5.31543e-35
1.89198e-35
1.659e-35
1.03098e-35
2.18185e-35
7.08087e-36
2.96121e-36
2.44349e-36
7.24582e-36
5.2709e-35
2.08531e-34
4.16792e-35
5.3347e-33
7.41935e-33
1.94917e-33
1.04467e-33
2.94899e-34
3.53228e-33
2.54478e-33
6.48174e-34
7.05076e-34
4.73145e-33
8.16237e-34
2.25927e-34
1.19636e-31
7.86397e-30
9.06962e-32
2.37191e-33
1.51759e-26
9.2457e-26
9.07394e-32
1.80133e-32
3.67657e-36
2.92705e-35
1.0927e-35
2.06293e-36
5.73902e-37
1.12339e-36
3.20803e-36
1.06434e-35
8.77921e-35
8.10251e-36
2.37091e-36
3.26924e-35
1.66089e-34
3.21971e-30
2.03523e-11
2.77917e-15
7.95158e-32
6.02397e-21
5.17156e-21
4.20119e-21
4.07772e-21
2.34709e-21
2.12829e-21
1.27802e-21
9.26737e-15
3.99945e-13
4.26725e-13
4.9116e-12
2.11233e-10
3.79316e-09
3.86589e-09
1.65102e-08
1.15874e-07
6.02786e-07
1.73011e-06
2.27135e-06
5.24638e-06
1.32761e-05
2.78066e-05
5.26994e-05
5.97935e-05
0.000102109
0.000166774
0.000298828
0.000579777
0.00100944
0.00147827
0.00272861
0.00401868
0.0108345
0.0135271
0.0300407
0.0456796
0.0716719
0.133666
0.161221
0.222673
0.340972
0.504338
0.523147
0.415896
0.512433
0.509531
0.343767
0.350719
0.346589
0.21589
0.131646
0.132786
0.0689703
0.0520031
0.0317186
0.0511962
0.0837528
0.0829182
0.103318
0.154181
0.220688
0.211081
0.152021
0.132728
0.126159
0.0834464
0.0439889
0.0422999
0.019384
0.0209633
0.0207227
0.00682576
0.0115268
0.00562082
0.00310119
0.00225252
0.00352754
0.00559579
0.00517923
0.00658733
0.00705599
0.00658797
0.00745491
0.00873512
0.00396886
0.00235687
0.00330564
0.00174506
0.00138049
0.00141146
0.000566996
0.000534824
0.000285274
0.000139469
0.000118272
0.000180072
0.000313595
0.000326034
0.000651594
0.00081798
0.000358224
0.000189834
0.000172605
7.15822e-05
8.18662e-05
7.11059e-05
3.70034e-05
4.48644e-05
2.91695e-05
1.21695e-05
8.15622e-06
2.75569e-05
3.63429e-05
2.11691e-05
2.63487e-05
2.31211e-05
1.53551e-05
2.06777e-05
1.98855e-05
4.87488e-06
5.59868e-06
3.52948e-06
6.79442e-07
1.24602e-06
4.46624e-07
8.11437e-08
1.34173e-08
4.41511e-08
2.04337e-07
1.8955e-07
7.95304e-07
7.54134e-07
1.63645e-07
6.77458e-08
4.5612e-08
1.50642e-08
1.25008e-08
8.03805e-09
1.51566e-09
1.77359e-09
2.41398e-10
1.39104e-11
7.40386e-13
7.75546e-11
3.01301e-10
4.39538e-10
2.36291e-09
2.31308e-09
4.2619e-10
1.4583e-10
9.34823e-11
2.98971e-12
9.2569e-13
1.31201e-13
1.76508e-13
4.99358e-15
4.05125e-22
3.97503e-39
1.05472e-38
1.93933e-31
3.15444e-15
4.98389e-16
5.89167e-37
9.46364e-34
7.04988e-16
3.78046e-15
2.59064e-15
4.30288e-13
7.95585e-11
4.76973e-10
2.14672e-09
2.41515e-09
7.37974e-09
5.96621e-08
2.08211e-07
6.82764e-07
8.16975e-07
1.87538e-06
5.71077e-06
1.21707e-05
2.5171e-05
2.82221e-05
5.78445e-05
0.000150867
0.000347714
0.000680615
0.00110375
0.00183817
0.00305904
0.00625231
0.0098399
0.0249836
0.0339079
0.0432404
0.0773728
0.130141
0.220966
0.350893
0.50644
0.348535
0.358518
0.217379
0.166587
0.225796
0.230591
0.353493
0.495186
0.494162
0.366191
0.289075
0.388504
0.504625
0.500552
0.492637
0.494124
0.355567
0.364954
0.237718
0.238577
0.234744
0.132573
0.140528
0.147611
0.126417
0.0811164
0.04204
0.0198178
0.0206169
0.0136723
0.00795395
0.0107277
0.00727555
0.0166331
0.0350459
0.0449278
0.071058
0.0694243
0.0769291
0.0750615
0.0445367
0.0206296
0.00851438
0.00369752
0.00400209
0.00550325
0.00315805
0.00142387
0.000539084
0.000592553
0.000296036
0.000118333
0.000212503
0.000162602
0.000335552
0.000725086
0.00128203
0.00153543
0.00317212
0.00303061
0.00510248
0.00785051
0.0178592
0.0365304
0.0729085
0.0901309
0.135757
0.184169
0.136463
0.104592
0.0653724
0.0866103
0.141061
0.234345
0.232817
0.362873
0.496968
0.628512
0.704908
0.783322
0.765764
0.633929
0.645973
0.513671
0.464329
0.535549
0.509299
0.629165
0.76574
0.767941
0.659243
0.547672
0.419669
0.400577
0.418141
0.36804
0.35331
0.223557
0.137982
0.137698
0.0813763
0.0409692
0.040446
0.0463473
0.039169
0.0257098
0.0124274
0.00973288
0.00704808
0.0043343
0.00244002
0.00136419
0.000772365
0.000552128
0.000349578
0.000263762
0.000428852
0.000654123
0.00138648
0.00168728
0.00287074
0.00416913
0.0075213
0.0146875
0.0271855
0.0213078
0.0310495
0.0272622
0.0384254
0.0820865
0.0847463
0.128066
0.24121
0.234479
0.309259
0.310852
0.420553
0.546484
0.658618
0.768061
0.766108
0.765854
0.635125
0.629234
0.508829
0.418234
0.402211
0.368586
0.242053
0.23427
0.138825
0.139266
0.0960235
0.0389125
0.0436058
0.0265895
0.0216371
0.0183968
0.00921781
0.0123525
0.00685804
0.00364888
0.00179867
0.00158193
0.00086576
0.000496434
0.000825313
0.00039582
0.000384358
0.000311543
0.000182967
0.000169944
0.000150452
0.000102833
9.00498e-05
5.61396e-05
1.78485e-05
2.2427e-05
8.53423e-06
5.08837e-06
6.89185e-06
7.68424e-06
1.8823e-05
2.62367e-05
6.16853e-05
5.63541e-05
5.56922e-05
5.92902e-05
2.47144e-05
9.35804e-06
3.69358e-06
4.10997e-06
4.45059e-06
1.66986e-06
4.72747e-07
5.86463e-07
1.6605e-07
5.68751e-08
1.30046e-07
1.7188e-07
5.82119e-07
6.02899e-07
9.17767e-07
2.80651e-06
3.4692e-06
1.2506e-05
1.54031e-05
4.69297e-05
9.66334e-05
6.99203e-05
0.00014456
0.000232852
0.00013425
8.82678e-05
0.000157951
0.000139264
0.000251109
0.000255662
0.00030971
0.000562509
0.00126724
0.00246836
0.00490191
0.00347504
0.00921241
0.0124567
0.0137518
0.0338256
0.0339111
0.039329
0.0959678
0.0848328
0.12841
0.138745
0.224255
0.352693
0.464265
0.537383
0.514838
0.497466
0.628761
0.635341
0.494867
0.356224
0.36326
0.233173
0.138103
0.0818296
0.0822379
0.0380824
0.0435749
0.0263619
0.0123902
0.0138069
0.00986468
0.00977448
0.00289552
0.00136523
0.00146422
0.000814025
0.000434531
0.000302013
0.000302027
0.000336269
0.000186708
0.000187112
0.000106784
8.39386e-05
5.70931e-05
5.70921e-05
3.64284e-05
3.44647e-05
1.54421e-05
9.90046e-06
3.9749e-06
2.50664e-06
7.58739e-06
2.24708e-05
2.94218e-05
2.13782e-05
4.91795e-05
6.88865e-05
7.83901e-05
2.69339e-05
5.47453e-05
6.62627e-05
0.000126329
6.63439e-05
0.000109697
0.000336251
0.000354062
0.000475398
0.000719068
0.000684674
0.00134369
0.00289335
0.00341465
0.0091712
0.00911612
0.0183328
0.0265681
0.0217361
0.0249163
0.0304583
0.0303091
0.0249703
0.0208659
0.0085133
0.00444422
0.00224493
0.00130558
0.000435269
0.000616513
0.000307985
0.000212187
0.000132131
7.35857e-05
3.6466e-05
2.76792e-05
3.53833e-05
2.43699e-05
2.39725e-05
1.48368e-05
9.86338e-06
5.49363e-06
5.00687e-06
2.97048e-06
1.75328e-06
8.56162e-07
2.46653e-07
3.73042e-07
1.37754e-07
4.08453e-08
9.78053e-08
2.48409e-07
9.24962e-07
1.43967e-06
2.4092e-06
3.52998e-06
1.89732e-06
3.27452e-06
3.4565e-06
8.77421e-06
9.20146e-06
2.53561e-05
1.6164e-05
3.16191e-05
3.57322e-05
3.7789e-05
3.74603e-05
6.5553e-05
0.000108459
0.000319781
0.000356246
0.000456181
0.000414729
0.000780054
0.00142092
0.00242857
0.00482418
0.0069283
0.012422
0.0213447
0.0311851
0.0412954
0.0407296
0.0463614
0.0655573
0.0864342
0.141333
0.23463
0.238993
0.366228
0.501204
0.635511
0.631806
0.504943
0.389119
0.289826
0.239686
0.184712
0.136594
0.104793
0.0907002
0.13642
0.133196
0.235133
0.230537
0.354035
0.496148
0.506743
0.349072
0.226521
0.166
0.147178
0.14029
0.0707715
0.0733967
0.0366448
0.0392901
0.025484
0.0272252
0.0149635
0.00772826
0.00427929
0.00370561
0.00182466
0.00123953
0.000579745
0.000304087
0.000304074
0.000328229
0.000195905
0.000130041
6.79009e-05
3.54001e-05
3.53863e-05
3.20074e-05
1.61107e-05
7.32617e-06
7.65577e-06
2.7832e-06
2.61984e-06
1.15795e-06
1.33622e-06
1.68506e-06
8.65123e-07
6.58152e-07
1.09714e-07
5.74864e-08
4.17002e-08
3.13196e-08
4.63749e-08
5.34055e-08
3.8279e-08
5.88011e-09
9.27578e-10
1.70948e-09
3.45428e-10
9.57264e-12
8.29518e-11
1.66162e-10
8.16697e-10
1.13444e-09
4.03239e-09
5.10917e-09
8.32083e-09
1.47758e-08
3.48678e-10
2.67678e-11
4.85496e-12
6.01337e-12
6.77361e-12
1.374e-13
2.51858e-15
6.717e-16
1.14335e-23
2.88876e-25
5.68236e-25
3.34494e-24
4.78558e-24
2.82152e-37
2.99446e-37
3.49133e-37
4.49148e-22
9.86768e-22
6.82723e-23
2.48949e-26
3.93028e-31
4.8424e-21
1.16512e-21
1.79307e-21
2.96268e-37
2.57291e-37
1.31064e-21
2.7901e-21
2.06581e-37
1.26913e-21
2.14246e-21
1.69799e-22
1.10212e-21
3.47615e-21
4.28982e-39
1.12773e-38
5.69031e-14
2.30083e-13
8.23623e-14
1.03503e-14
4.73523e-13
6.24614e-13
4.30607e-12
1.65413e-10
1.00448e-08
1.29461e-08
1.28738e-07
1.2046e-06
1.74869e-06
1.45483e-06
2.93096e-06
9.02278e-06
1.3354e-05
2.96761e-05
4.9174e-05
8.16977e-05
0.0001568
0.000249554
0.00034117
0.000375707
0.000849387
0.00152756
0.00202945
0.00448548
0.00579444
0.00964636
0.0274809
0.0335108
0.0726111
0.0950072
0.154673
0.231681
0.338245
0.490953
0.354214
0.242813
0.225556
0.223177
0.132036
0.0740771
0.0774863
0.0307881
0.026948
0.0253842
0.0218295
0.00902175
0.00479415
0.00429764
0.00203521
0.00165082
0.00134389
0.00113535
0.000378023
0.000217618
0.00027696
0.000233455
0.00011504
9.23219e-05
6.62649e-05
2.654e-05
1.66656e-05
3.15887e-05
1.72661e-05
9.52076e-06
5.69483e-06
3.41807e-06
8.60092e-07
3.01045e-07
5.63014e-07
2.87291e-07
5.40954e-08
2.17258e-08
2.67563e-08
2.3323e-09
7.07296e-09
1.62768e-10
3.53151e-12
1.05316e-11
1.20765e-11
8.45182e-13
1.67374e-12
2.67317e-13
1.23744e-31
8.61863e-32
1.41397e-29
1.59538e-30
5.80269e-23
6.95757e-15
3.49382e-13
1.72031e-13
2.04524e-13
1.33392e-12
1.23582e-10
2.39425e-08
3.47878e-08
6.68758e-07
4.80421e-06
5.17462e-06
2.55911e-06
2.55921e-06
7.79574e-06
2.34661e-05
3.66652e-05
5.40999e-05
8.8048e-05
0.000146734
0.000218903
0.000270821
0.000249238
0.000479163
0.00112269
0.00255234
0.00244729
0.00309256
0.00555903
0.0139496
0.0445709
0.0569461
0.0774369
0.13347
0.205688
0.325091
0.483112
0.36846
0.22115
0.13671
0.0746558
0.0458306
0.0199384
0.0219117
0.00961956
0.00440647
0.00268999
0.00218117
0.00114915
0.000459515
0.00026562
0.000187604
0.000211079
7.57951e-05
3.10859e-05
2.28806e-05
1.59133e-05
7.42994e-06
2.89063e-06
6.14449e-07
1.98476e-07
5.43468e-08
6.31426e-08
3.92883e-09
4.80507e-10
1.00243e-10
2.12227e-11
5.09053e-12
4.12574e-13
1.72097e-12
4.17398e-12
7.71286e-15
4.83008e-31
2.97113e-31
3.9468e-31
1.52186e-31
3.7282e-35
3.22835e-34
1.25763e-31
6.01332e-29
9.41266e-29
1.44072e-15
9.76949e-14
2.34956e-13
1.50578e-11
2.67719e-11
9.83332e-11
1.19239e-08
8.26579e-08
1.59672e-07
6.31239e-07
2.27451e-06
7.53683e-06
1.74327e-05
2.21039e-05
2.31776e-05
2.32833e-05
3.76592e-05
8.65576e-05
0.000159286
0.000173428
0.000150793
0.000195765
0.000308557
0.000611896
0.00139596
0.00186017
0.00427244
0.00723169
0.0201134
0.0275507
0.0381812
0.0782313
0.129457
0.20537
0.42796
0.173561
0.0576228
0.0154295
0.00234198
0.00039589
0.000209332
2.5498e-05
1.07623e-05
2.68901e-06
1.84893e-07
3.02922e-09
6.41513e-10
7.84001e-12
1.92279e-29
7.76336e-28
4.92968e-28
2.94764e-28
6.1351e-28
2.49271e-29
2.52373e-29
4.34393e-33
1.31219e-34
2.84855e-34
4.68588e-33
8.35136e-33
1.34231e-29
4.2853e-13
1.92448e-30
2.47244e-33
4.04583e-33
1.248e-33
4.68954e-29
1.19602e-29
8.01482e-08
3.56621e-07
1.56132e-06
1.56092e-06
4.67663e-06
5.08753e-06
1.07745e-05
2.15005e-05
5.7078e-05
9.60775e-05
0.00013114
0.000211684
0.000248696
0.000255966
0.000545913
0.00117505
0.00201009
0.00331151
0.00501975
0.0074988
0.011475
0.0230747
0.0320981
0.0756172
0.429705
0.176032
0.0579338
0.0146486
0.00271842
0.000684352
0.000199425
4.83625e-05
1.1886e-05
5.32822e-06
1.80547e-06
6.48306e-07
2.95468e-07
7.64278e-08
1.75389e-08
4.04161e-10
1.05715e-10
3.2613e-12
4.68315e-12
1.02802e-11
1.39228e-10
1.00239e-09
7.17479e-09
9.15287e-09
1.59155e-08
1.75831e-08
3.87642e-09
2.45981e-09
4.7865e-10
2.54276e-11
1.1007e-11
9.90904e-13
3.88587e-13
1.59357e-13
1.09505e-11
1.5848e-13
1.11959e-14
1.72282e-14
7.17436e-25
1.00776e-24
1.10725e-48
7.09011e-48
6.12587e-45
7.15447e-43
8.40737e-27
2.32567e-25
8.86359e-26
1.12346e-24
2.47446e-26
4.07757e-14
3.55125e-14
2.71753e-14
1.96006e-14
1.72864e-14
4.66464e-15
5.45218e-15
2.34639e-14
2.39803e-21
1.15592e-22
3.32809e-14
7.94505e-14
2.58906e-12
7.30298e-13
6.89822e-13
5.35654e-13
1.58359e-12
7.90194e-14
3.91894e-13
2.71656e-11
4.12741e-34
9.95741e-34
2.2367e-31
1.07408e-30
1.2327e-12
4.77489e-15
3.95189e-31
1.21527e-30
7.75621e-30
7.75848e-30
5.18348e-30
3.28537e-30
1.63654e-26
8.72435e-17
5.02366e-16
2.28211e-13
2.91095e-11
2.57038e-11
2.65513e-10
2.21647e-09
2.20657e-09
2.84942e-08
2.49416e-07
3.5577e-07
8.96795e-07
1.62382e-06
3.32742e-06
5.52804e-06
1.1962e-05
1.20472e-05
2.04773e-05
2.73302e-05
6.65398e-05
0.000185192
0.000344207
0.000350698
0.000301013
0.000606985
0.00210755
0.00234329
0.00429937
0.0108474
0.0266656
0.0430259
0.0679862
0.0893264
0.12188
0.210442
0.343312
0.216255
0.132833
0.0793623
0.0416928
0.0216512
0.0173118
0.0060233
0.00391677
0.00522072
0.00649627
0.00314768
0.0018515
0.0009124
0.00041642
0.000292507
0.000169604
0.000188772
0.000131146
0.000131147
0.000139908
9.74664e-05
4.08203e-05
2.74516e-05
1.94365e-05
3.1315e-05
2.20023e-05
7.36361e-06
3.12308e-06
7.28912e-06
4.08132e-06
1.47898e-06
2.34964e-07
1.44002e-07
2.18354e-08
7.07378e-11
6.45618e-12
3.78203e-12
3.47474e-12
2.12918e-13
3.67468e-15
6.20451e-16
6.80202e-16
1.22243e-26
3.70255e-29
2.26537e-31
9.64619e-30
1.56374e-29
1.37212e-29
4.59898e-31
3.8831e-33
6.73807e-30
7.88781e-31
2.46103e-30
2.90106e-14
9.7066e-15
5.35474e-15
6.94234e-15
7.11048e-15
6.13157e-16
5.69166e-14
5.08501e-12
6.92088e-12
1.75866e-10
1.14472e-09
6.61368e-10
1.03689e-08
7.72305e-08
9.17696e-08
3.73048e-07
1.63773e-06
2.01354e-06
6.91394e-06
4.18062e-05
3.75259e-05
2.38547e-05
2.62786e-05
6.75373e-05
0.000124246
0.000162049
0.000165358
0.000352797
0.00085855
0.00147356
0.00259053
0.00406219
0.00479986
0.0076883
0.0223731
0.0491504
0.0569098
0.0721399
0.123744
0.206595
0.214965
0.132695
0.0828962
0.0469501
0.0492564
0.0205159
0.00839793
0.00333075
0.00412147
0.00198648
0.000960861
0.000478263
0.000336656
0.000221441
0.00023354
8.35048e-05
8.2556e-05
2.8181e-05
1.97442e-05
2.23873e-05
4.18025e-05
5.32841e-06
1.04958e-06
1.52977e-06
5.38378e-07
1.42793e-07
1.1822e-08
1.39261e-08
4.7727e-09
2.97085e-10
2.03978e-11
3.19234e-11
4.25629e-11
3.85498e-10
3.67917e-10
6.38487e-09
5.17875e-08
4.24858e-08
2.43923e-07
1.03577e-06
1.37623e-06
7.1193e-06
1.21962e-05
2.53573e-05
1.81946e-05
4.30735e-05
3.36357e-05
8.91575e-05
0.000161164
0.000128665
0.000198877
0.000441382
0.00119337
0.00164675
0.00320177
0.00515453
0.00803395
0.00761555
0.023788
0.034514
0.0760939
0.0886626
0.136476
0.207499
0.21083
0.134261
0.0951303
0.0870675
0.0460602
0.0232094
0.00811498
0.00851792
0.00504993
0.00355973
0.00111385
0.00142484
0.000494072
0.000285481
0.000197857
0.000181078
9.83204e-05
4.12833e-05
1.81946e-05
1.81946e-05
2.21711e-05
2.87963e-05
6.96537e-06
7.58792e-06
7.03024e-06
1.4808e-06
2.37114e-07
2.50849e-07
2.05776e-07
3.59134e-08
4.00614e-09
3.16388e-09
1.33264e-08
4.21843e-08
4.29189e-08
5.34303e-09
1.44243e-10
2.44043e-10
3.46616e-12
4.09477e-11
2.71637e-10
1.54352e-11
2.47839e-11
2.95402e-11
2.32815e-12
1.68772e-12
2.95663e-13
1.71592e-14
5.48791e-14
3.41153e-22
0.00577529
0.00819467
0.0227862
0.03652
0.0565118
0.0639513
0.127654
0.428458
0.176233
0.0566046
0.0146199
0.00256931
0.000590654
0.000151137
3.80371e-05
1.12617e-05
2.81079e-06
2.80632e-07
5.3941e-09
4.98092e-10
2.68211e-10
9.24054e-12
9.37367e-12
4.55213e-12
5.20158e-15
1.49389e-12
4.22405e-13
2.5889e-13
2.15771e-12
1.04424e-10
3.26785e-11
5.10955e-12
1.75948e-11
4.43265e-12
6.76597e-12
5.58578e-12
3.62344e-10
2.78346e-12
1.39033e-12
2.97612e-13
5.71809e-15
7.99488e-14
5.76446e-15
6.56683e-26
3.53074e-38
1.21534e-38
1.30346e-38
3.67627e-38
4.73874e-29
1.09503e-31
4.48683e-13
4.93349e-12
1.87699e-12
1.5566e-10
1.5633e-13
1.56458e-14
1.17322e-13
8.87828e-14
2.6819e-13
1.62475e-14
1.42198e-15
1.14717e-15
1.13848e-13
3.94109e-12
4.51404e-12
1.32175e-13
3.74369e-13
8.07711e-13
1.37211e-13
2.28948e-16
3.29449e-27
6.4134e-25
1.45192e-38
1.16701e-37
1.31654e-37
4.89923e-29
4.62796e-29
2.18133e-29
6.72173e-30
4.04008e-29
2.98284e-38
3.7071e-29
4.69526e-29
1.36452e-24
8.91958e-25
2.76732e-24
1.82654e-34
1.5376e-34
0.49363
0.368851
0.220398
0.140299
0.0787993
0.0486327
0.0231394
0.00977306
0.00455096
0.00353369
0.00148069
0.000420162
0.000200893
0.000116751
6.74803e-05
2.54371e-05
1.21925e-05
3.06463e-06
6.85632e-10
1.79439e-09
1.509e-14
7.46225e-22
1.99918e-28
8.05555e-29
1.74937e-28
3.66213e-11
6.63636e-11
9.79312e-12
2.44085e-13
2.2747e-13
1.0849e-13
4.30962e-13
1.00061e-12
0.50229
0.372049
0.233786
0.133918
0.0685284
0.0492053
0.0252969
0.00976574
0.00382032
0.00322438
0.00172858
0.000322376
0.000185538
9.98871e-05
8.95766e-05
9.1356e-06
4.19706e-06
1.16794e-06
7.0584e-09
3.02493e-10
3.96563e-10
6.16648e-06
1.82891e-05
3.44649e-05
2.11145e-05
6.59762e-05
5.9351e-05
0.000205602
0.000302697
0.000284071
0.000542879
0.00100718
0.000637114
0.001358
0.00338304
0.0040617
0.00425999
0.00716635
0.0214994
0.0228815
0.0443456
0.0678104
0.129862
0.129958
0.076924
0.0456192
0.0250502
0.0220546
0.00860178
0.00381224
0.00375282
0.00254854
0.00318376
0.00177365
0.000500631
0.000340792
0.000336725
0.000253046
0.000275585
0.000157223
0.000129798
0.000150514
3.87113e-05
2.26158e-05
1.77613e-05
2.65504e-05
1.08446e-05
6.28541e-06
3.68348e-06
6.46804e-06
8.59156e-06
1.35954e-06
1.45299e-06
2.4256e-07
0.501906
0.360056
0.229191
0.130074
0.0803916
0.0504271
0.0242687
0.00819561
0.00698922
0.00724446
0.0134544
0.00307859
0.000763906
0.000117535
3.6438e-05
1.05237e-05
4.35903e-06
3.62025e-07
1.44528e-09
2.90807e-10
2.87713e-10
1.02094e-10
1.55897e-10
7.65047e-13
5.46957e-13
1.48684e-15
5.8959e-31
4.55996e-29
4.98838e-29
1.58591e-28
8.82038e-30
9.20244e-14
9.95159e-18
0.0632124
0.0515606
0.0308831
0.00899603
0.00492777
0.00307575
0.00161398
0.000286162
0.000129924
9.59132e-05
0.000141566
0.000171693
0.000163637
3.84494e-05
3.53885e-05
3.36833e-05
1.51697e-05
1.50065e-05
1.29344e-05
1.17693e-05
3.67356e-06
6.09642e-09
3.75033e-09
0.026511
0.0472627
0.0792198
0.0720969
0.128066
0.122617
0.0861039
0.0447603
0.0429955
0.046099
0.0219522
0.00986474
0.0100644
5.25476e-13
8.32629e-09
9.99953e-11
2.85759e-08
1.28505e-10
9.56345e-12
2.54044e-12
4.30314e-13
7.81878e-13
5.42528e-13
6.82334e-15
4.77018e-11
3.68694e-12
3.28824e-11
4.65086e-13
3.34535e-13
3.26354e-14
3.60971e-31
2.74232e-31
1.94193e-29
1.75549e-31
3.53773e-33
1.45508e-32
1.29755e-29
1.92081e-27
6.04032e-27
1.87365e-34
2.15184e-33
2.42281e-33
4.11034e-34
3.22029e-31
8.42306e-31
3.65354e-29
6.29073e-31
1.53706e-30
5.27035e-13
1.19012e-12
1.02662e-11
8.74363e-14
7.6625e-14
6.72694e-14
6.98536e-14
3.64339e-13
3.29136e-13
2.27254e-12
6.0444e-11
4.1576e-11
1.54228e-11
6.32398e-11
3.90274e-10
1.95355e-10
6.30012e-10
6.95668e-10
2.17478e-08
1.06934e-08
6.44475e-09
8.72604e-09
9.68955e-09
9.48115e-09
9.45731e-10
4.35047e-11
6.58078e-11
9.87872e-11
4.31688e-09
5.31156e-08
2.43684e-07
4.23115e-07
1.67708e-06
4.88666e-06
6.43058e-06
2.2299e-05
1.29934e-05
1.21469e-05
2.34689e-05
4.14116e-05
0.00010703
0.000220741
0.000268505
0.000168901
0.000275638
0.000565525
0.00173844
0.00271605
0.00125545
0.000452053
0.000182365
0.000189555
0.000161477
0.000134933
3.33166e-05
2.22442e-05
1.21472e-05
1.23279e-05
1.93297e-05
8.35006e-06
3.29701e-06
1.23763e-06
5.66701e-07
1.62955e-07
3.85749e-08
1.39559e-09
3.14433e-08
1.13872e-07
2.95087e-08
2.51912e-08
7.08628e-09
3.81178e-07
3.08617e-08
0.0634667
0.0518351
0.0309088
0.0091754
0.00523392
0.00314097
0.00164011
0.00029867
0.000131024
0.000119286
3.41062e-05
9.16177e-06
1.52976e-05
1.21943e-05
2.39913e-06
1.78995e-07
1.44791e-08
4.74273e-27
4.09264e-26
2.11343e-25
3.48307e-27
2.39709e-28
1.31863e-20
4.0799e-21
9.39681e-21
1.1375e-20
6.63e-21
9.26518e-28
7.85178e-26
2.68993e-27
1.30439e-25
1.49583e-26
1.47265e-27
1.06633e-26
9.87919e-19
2.60609e-18
2.13859e-18
4.90022e-18
5.54196e-18
5.238e-14
6.98446e-14
7.0232e-14
9.43119e-13
1.68305e-11
1.67174e-11
9.09411e-13
7.24069e-19
1.56979e-19
7.42299e-19
1.67476e-18
1.09129e-20
4.99166e-21
1.74817e-19
1.32833e-18
4.19214e-13
3.27686e-13
1.20801e-13
1.37537e-13
1.9098e-13
4.36924e-13
4.92594e-13
3.09792e-13
2.83442e-13
3.73809e-13
9.06485e-13
4.13744e-13
3.47012e-14
7.1881e-14
2.41152e-14
3.46881e-15
1.94339e-14
5.77563e-15
1.72699e-15
1.60301e-14
9.9663e-15
1.17638e-14
1.33824e-14
1.29789e-14
2.2801e-14
2.05965e-14
1.20571e-14
9.10585e-15
1.65613e-15
5.60321e-16
7.03807e-16
6.26465e-17
3.67357e-16
9.85919e-16
1.2837e-16
1.41464e-14
4.90343e-14
2.86562e-14
3.90594e-14
1.20112e-14
5.7909e-15
1.0236e-15
1.29517e-15
2.39763e-15
2.31936e-15
4.08877e-15
1.15514e-14
4.48495e-14
3.27267e-14
6.49662e-14
4.94279e-13
3.40823e-12
3.3855e-12
5.60541e-11
3.06578e-10
4.76334e-10
9.88156e-09
8.97381e-08
1.64149e-07
8.97259e-07
2.85816e-06
3.12498e-06
9.95987e-06
9.96011e-06
9.99204e-06
1.34502e-05
2.57851e-05
6.28335e-05
0.000124659
0.000164094
0.000181729
0.000354931
0.00087447
0.00149381
0.00263696
0.00409161
0.00487476
0.007927
0.0224823
0.0484066
0.0571042
0.0724432
0.123861
0.206805
0.332952
0.320402
0.206708
0.136317
0.0896205
0.0758991
0.0345898
0.023996
0.00782299
0.00813759
0.00520278
0.00323172
0.00166131
0.00119206
0.000445297
0.000228054
0.000149211
0.000147805
8.12492e-05
3.92708e-05
1.56539e-05
2.03032e-05
1.40703e-05
5.66975e-06
5.1657e-06
1.62862e-06
4.4031e-07
2.84122e-07
5.73133e-08
3.6321e-09
1.10329e-08
2.64789e-10
1.64275e-11
1.00583e-10
7.66657e-12
6.31897e-13
5.08594e-13
1.612e-13
1.18482e-12
3.13908e-12
5.16559e-12
2.69793e-12
1.24137e-12
4.76763e-13
2.14782e-13
4.88095e-13
5.16941e-13
5.49354e-14
3.95032e-13
2.32689e-13
1.01161e-13
7.50817e-16
9.46643e-14
4.81459e-14
7.38913e-14
4.80229e-16
2.13712e-13
2.07894e-13
6.14793e-14
1.26455e-13
1.97527e-13
3.90105e-13
3.69213e-13
1.49964e-13
1.28197e-13
5.95826e-14
1.79172e-13
1.73764e-13
1.06109e-14
1.03801e-13
1.43382e-13
1.57853e-13
1.374e-14
2.00837e-13
6.34217e-13
1.0731e-12
7.24853e-14
1.26722e-12
4.83165e-12
1.23187e-11
2.15725e-11
1.25004e-11
1.4932e-11
3.51097e-11
2.91937e-11
1.88544e-11
4.88873e-12
3.50397e-12
1.33896e-12
2.96254e-11
2.17614e-10
2.72301e-10
9.08908e-11
3.07714e-10
2.32045e-10
4.02497e-10
9.82014e-10
1.32482e-09
8.65411e-10
9.02471e-10
2.48875e-10
7.16198e-10
1.91781e-09
0.0126959
0.0097871
0.00423976
0.00305676
0.0010985
0.000261405
0.0001704
0.000159405
9.62112e-05
2.21638e-05
1.28169e-05
3.7911e-06
3.86388e-09
5.66116e-09
4.98359e-08
4.0712e-08
4.04845e-06
3.48918e-33
5.41185e-33
1.44811e-10
2.59391e-10
3.12323e-11
1.98782e-12
2.25692e-12
2.61614e-12
1.88497e-12
2.33e-12
4.54683e-12
5.68455e-13
1.59486e-18
2.17707e-23
5.20749e-18
1.76639e-18
4.65227e-17
7.20902e-16
2.72577e-17
7.49939e-19
4.71694e-18
1.20331e-17
5.15428e-18
5.06997e-21
7.1239e-20
5.43157e-20
9.96175e-22
9.44702e-24
3.44792e-23
2.21241e-22
4.83155e-22
4.10011e-23
8.49045e-22
6.09087e-22
1.27332e-21
1.99757e-21
4.97586e-23
1.39824e-23
5.86279e-28
1.50651e-31
6.62727e-31
4.39277e-29
3.71692e-29
9.59519e-30
1.85913e-29
1.44741e-27
2.20325e-25
1.81754e-22
4.93815e-23
1.86629e-22
2.22447e-22
7.33849e-27
1.05071e-27
1.37492e-25
1.92421e-23
8.28081e-25
7.80964e-27
2.02282e-22
1.90937e-22
1.96494e-22
6.26048e-23
3.43472e-22
3.26195e-25
3.94631e-28
2.75576e-16
1.16115e-15
2.26038e-13
1.02845e-11
1.88156e-11
3.91026e-10
2.67424e-09
5.12543e-09
5.26179e-08
4.79674e-07
5.71229e-07
8.02395e-07
2.19021e-06
1.79979e-05
1.81569e-05
1.14028e-05
1.43405e-05
2.6283e-05
3.32372e-05
6.04941e-05
0.000175645
0.000302458
0.000346319
0.000312587
0.000608051
0.00211404
0.00234189
0.00422483
0.0108314
0.0267218
0.0427586
0.0678345
0.0888473
0.122215
0.210473
0.202968
0.135271
0.0716124
0.0581816
0.0488319
0.0200772
0.00841049
0.00331708
0.00417515
0.00200202
0.000953585
0.000471154
0.000339641
0.000189889
0.000183305
7.97526e-05
7.39091e-05
2.57462e-05
1.19018e-05
1.14021e-05
9.96036e-06
1.55292e-05
2.80611e-06
1.10787e-06
1.07899e-06
2.63328e-07
2.3309e-08
1.57437e-08
1.36043e-09
7.35195e-11
6.87689e-11
9.45292e-12
1.47547e-13
2.88997e-13
1.65421e-14
5.82926e-14
5.4075e-13
1.78628e-24
5.82761e-29
1.1427e-24
1.32955e-37
1.13657e-37
4.83389e-38
1.94626e-37
2.93731e-35
1.09931e-35
2.343e-37
1.06653e-35
4.25019e-36
8.4915e-36
1.34132e-35
1.706e-35
3.60943e-36
2.61279e-36
2.34624e-36
6.12517e-36
6.60932e-35
1.96287e-34
9.27175e-35
1.12854e-36
3.6387e-36
4.23803e-37
1.45653e-36
5.81907e-36
5.57205e-32
5.94652e-30
1.68624e-30
5.65838e-34
8.03481e-35
6.51813e-30
1.21109e-29
1.10375e-29
1.10166e-29
1.11574e-27
4.79721e-23
1.16518e-23
4.62089e-25
1.50001e-25
3.00932e-27
4.10498e-33
1.17313e-33
1.39834e-27
7.50409e-27
2.67634e-34
3.99915e-35
7.83357e-26
6.24717e-23
2.01609e-12
6.83536e-27
4.22737e-27
7.59885e-12
1.18556e-27
6.89157e-28
9.65467e-12
1.67229e-27
1.60307e-26
2.93355e-34
1.82585e-24
1.43094e-21
5.31166e-19
6.47102e-20
3.19787e-20
2.32341e-20
4.60666e-20
3.68721e-19
1.01429e-18
7.93695e-14
3.19665e-12
2.5739e-10
1.18425e-09
1.56583e-09
2.99044e-09
1.90143e-08
2.58612e-08
2.72986e-07
3.10355e-07
6.29175e-07
6.06661e-07
1.11705e-07
3.83568e-07
4.0517e-07
1.25601e-06
1.19754e-06
2.67222e-06
2.53374e-06
9.2498e-06
2.43216e-05
2.50614e-05
2.48817e-05
2.48246e-05
2.83239e-05
6.37373e-05
0.000112071
0.000192696
0.000261908
0.000316494
0.000510666
0.000894734
0.0016262
0.00171211
0.00292171
0.00395793
0.00236351
0.00422504
0.0069354
0.0123588
0.00961651
0.00503934
0.00772743
0.0173782
0.0151092
0.0167096
0.0347746
0.0444904
0.0382796
0.0420456
0.022344
0.0260089
0.0103301
0.00964826
0.00592188
0.00647154
0.0035741
0.00250149
0.00122312
0.000965643
0.00128205
0.000420376
0.000532624
0.000532537
0.000532487
0.000254181
0.000158412
7.92267e-05
3.77803e-05
2.5229e-05
1.95712e-05
1.64265e-05
3.69462e-06
1.99861e-06
1.21874e-06
4.42868e-07
1.28433e-07
6.06535e-08
6.91973e-08
3.98252e-08
2.21045e-09
2.96907e-09
9.42486e-10
1.73345e-09
4.66098e-10
2.95511e-10
3.69212e-12
6.19564e-14
8.75026e-19
9.08095e-19
6.9659e-25
3.49661e-25
1.5709e-24
1.08594e-19
1.0866e-13
1.18992e-11
5.62981e-11
1.41277e-10
3.37333e-10
4.91447e-10
3.95921e-09
5.56659e-09
6.99681e-10
1.39658e-10
1.62132e-10
1.77302e-10
4.06307e-11
2.09887e-11
2.60463e-13
1.51358e-17
1.83294e-16
2.28626e-13
1.9972e-11
4.71253e-11
2.53278e-11
7.44259e-11
3.46173e-10
3.17293e-09
4.53092e-08
1.02247e-07
3.67707e-07
3.50506e-07
1.11316e-06
1.22875e-06
3.39473e-06
8.98867e-06
1.51793e-05
1.05254e-05
2.36098e-05
4.94874e-05
6.27608e-05
7.89524e-05
0.000139953
0.000259104
0.00039799
0.000831101
0.000638995
0.00135258
0.000765968
0.00134419
0.00301325
0.00322738
0.00736754
0.0108522
0.0198758
0.0417637
0.0808432
0.12633
0.130375
0.221343
0.350699
0.421684
0.512076
0.524149
0.509806
0.510798
0.506406
0.357081
0.358595
0.217874
0.235257
0.236812
0.130106
0.07657
0.068955
0.0773251
0.080943
0.0435159
0.0390869
0.0253024
0.0212931
0.00927869
0.00528831
0.00389204
0.00186472