/*--------------------------------*- C++ -*----------------------------------*\
  =========                 |
  \\      /  F ield         | OpenFOAM: The Open Source CFD Toolbox
   \\    /   O peration     | Website:  https://openfoam.org
    \\  /    A nd           | Version:  7
     \\/     M anipulation  |
\*---------------------------------------------------------------------------*/
FoamFile
{
    version     2.0;
    format      ascii;
    class       surfaceScalarField;
    location    "18.8";
    object      alphaPhi0.water;
}
// * * * * * * * * * * * * * * * * * * * * * * * * * * * * * * * * * * * * * //

dimensions      [0 3 -1 0 0 0 0];

internalField   nonuniform List<scalar> 
43852
(
-5.3012e-05
4.2463e-06
0.000182274
-0.000347787
5.2427e-05
8.79276e-06
2.43463e-05
-9.53764e-05
1.58202e-05
-2.64479e-05
-3.74301e-06
-0.000147599
0.000186636
-2.53251e-06
2.49582e-05
-4.36299e-05
-2.1788e-05
5.7197e-05
-8.95757e-07
1.83192e-05
-2.01494e-05
1.83339e-05
-1.75748e-05
-4.33496e-06
1.11651e-05
-1.43486e-05
1.4432e-05
-1.10301e-05
-1.78029e-06
8.60118e-06
8.8967e-08
-9.13999e-06
3.87219e-06
-1.0148e-06
8.19074e-07
-5.85255e-08
-1.40518e-06
9.121e-07
-3.1289e-07
2.71435e-07
4.66682e-07
-5.18722e-07
-5.75958e-07
-2.23213e-07
2.20381e-07
2.00296e-07
-9.04619e-08
-2.09964e-07
-9.59437e-08
2.11945e-07
-2.75424e-08
4.64269e-08
-1.13327e-07
-3.99804e-08
-2.92398e-07
6.73644e-07
-2.17598e-07
7.69238e-07
-7.29149e-08
-9.68648e-08
1.98988e-08
-2.81547e-08
-7.73315e-08
1.57189e-07
-7.63351e-08
1.09726e-07
6.94935e-08
-1.217e-08
3.16253e-08
-2.54913e-08
1.83452e-08
4.73352e-08
-8.76776e-11
-3.26931e-10
6.88751e-08
8.36345e-08
7.1267e-08
-7.09762e-09
2.29958e-08
1.24049e-08
-9.79655e-21
-1.77016e-13
3.37508e-12
-7.1293e-12
-1.35112e-11
-7.11707e-31
-5.46734e-28
-1.80064e-21
5.85505e-22
-7.52334e-24
-1.54212e-31
1.80756e-32
4.31343e-32
-1.75826e-31
4.79331e-31
5.15663e-29
-6.52502e-31
3.98908e-28
-9.43826e-22
-3.25102e-25
2.10701e-21
-9.11045e-21
3.50907e-20
-3.15843e-25
4.3557e-20
-1.46e-20
7.21409e-20
-2.75585e-24
5.56843e-20
2.07156e-19
-1.7317e-25
8.52725e-21
1.13839e-19
1.14383e-18
-1.29355e-19
-4.09834e-20
1.83579e-17
3.85955e-14
-2.37272e-11
8.17614e-11
-5.2506e-22
-1.77679e-11
-9.92633e-19
9.01507e-11
-9.40765e-32
-9.85409e-22
-2.65127e-28
-5.42746e-31
9.60844e-21
2.68865e-34
-3.36988e-32
8.01691e-32
-2.05941e-32
-2.23389e-32
1.20242e-31
-3.80503e-33
-1.09133e-32
-1.00103e-34
6.36775e-32
-3.07539e-31
9.93456e-34
-3.01842e-33
6.91042e-31
-1.48733e-34
2.06758e-31
-6.82303e-34
-6.97231e-32
0
3.05185e-35
-6.52286e-35
-1.84594e-37
4.83609e-34
5.37916e-36
3.78128e-35
-6.48796e-38
1.08202e-34
7.1509e-37
4.43423e-36
-2.13396e-38
1.40075e-35
-3.36701e-38
1.10968e-36
-4.76386e-39
3.51841e-36
-1.43962e-36
5.70913e-37
-2.79203e-39
1.87595e-36
4.2048e-36
-6.97543e-37
1.12149e-35
-1.88054e-35
-3.7156e-32
-7.30425e-33
-1.27769e-35
0
5.44529e-32
0
8.24565e-33
5.43063e-34
0
-1.52325e-31
6.45325e-31
-1.2111e-32
-3.77106e-32
1.66425e-31
0
2.39364e-32
0
-2.45739e-35
-9.18745e-37
-2.27027e-37
-1.80187e-31
1.71044e-34
0
-1.97598e-37
-1.33692e-34
2.93771e-36
1.19072e-34
-6.78433e-36
-4.81248e-38
3.69606e-36
-7.26109e-35
5.49356e-35
5.03111e-37
3.35614e-34
-5.60262e-33
3.85003e-33
9.6988e-35
-1.25538e-38
4.39357e-35
1.73707e-34
4.25519e-36
4.4059e-37
3.29174e-38
-3.25548e-37
1.6298e-36
-7.40805e-32
-7.25519e-33
7.72102e-38
0
-9.98674e-33
0
4.97982e-32
3.23286e-32
-1.57344e-33
0
6.09001e-32
2.37068e-30
-3.22141e-25
1.41403e-24
-1.67511e-32
1.0875e-23
3.66676e-34
-2.25752e-33
1.19966e-32
1.64864e-31
6.44639e-33
0
-1.85953e-36
-1.26716e-36
-3.10557e-37
-2.41599e-33
-2.90422e-37
0
2.99504e-37
-1.1464e-36
7.28892e-36
-4.69493e-40
-5.51744e-37
1.07215e-37
5.46082e-36
3.09978e-37
2.01946e-37
1.03221e-35
7.17567e-37
4.96874e-37
-6.52109e-39
5.24797e-36
3.28562e-37
9.84025e-37
-7.2568e-39
2.64467e-36
4.2497e-37
-4.83442e-41
1.38147e-36
2.27024e-38
3.56376e-33
-1.63712e-32
-5.15406e-38
0
-8.12343e-34
0
1.75385e-33
-2.1247e-32
-4.07669e-35
9.10449e-32
7.8296e-27
6.11805e-25
2.35585e-26
-1.08677e-34
7.31062e-26
-6.52021e-28
-6.73673e-24
8.57833e-20
4.0933e-20
2.52055e-20
-4.73506e-25
-3.78879e-21
4.98013e-18
-9.27025e-20
-5.20656e-20
-6.89384e-20
4.94765e-17
-2.75638e-13
1.42261e-09
-7.01899e-21
-6.69426e-21
9.67076e-10
-2.95502e-20
-6.03377e-20
1.58028e-17
5.86715e-22
-7.55232e-21
3.62921e-20
-2.56464e-25
-2.54349e-29
1.17713e-21
-2.60474e-25
-1.45109e-32
-2.45599e-31
1.95137e-28
-1.86357e-31
3.58819e-31
-1.0007e-32
-2.25586e-31
6.44328e-31
1.26075e-32
-8.07884e-32
-1.77722e-32
0
1.99604e-33
-4.30795e-34
-6.88581e-35
4.17563e-32
-2.97152e-31
0
-1.76922e-34
5.1329e-35
-5.89694e-37
1.19958e-33
-1.32369e-36
-1.25148e-36
3.62258e-33
1.16703e-33
7.85818e-37
7.79878e-35
-1.59375e-38
2.54476e-35
-6.73324e-37
2.0556e-33
1.17037e-35
8.81727e-37
3.05758e-35
-3.55641e-39
8.59205e-30
8.49985e-31
6.9423e-32
3.18012e-29
5.95566e-27
-9.1393e-30
7.25385e-27
6.07729e-26
1.07554e-26
-7.09655e-29
1.10927e-26
5.21281e-27
1.02692e-26
2.45444e-26
-4.8407e-28
7.12782e-25
9.66718e-24
-1.52832e-29
1.08662e-27
7.31663e-30
-3.106e-29
1.31317e-28
9.12926e-29
-7.61958e-29
4.88248e-28
2.30033e-27
-3.78625e-28
2.19507e-26
-4.61392e-29
-8.81112e-27
6.78734e-25
-2.95539e-37
-1.86376e-31
6.50367e-28
6.10717e-38
6.28009e-38
9.64759e-37
6.77381e-37
1.81287e-37
9.74149e-36
-3.73594e-49
-1.50712e-34
6.24703e-34
1.51587e-49
3.46431e-50
1.5422e-48
2.91344e-37
4.96795e-38
3.23903e-36
-1.23881e-35
-5.02994e-34
7.49253e-33
-2.09836e-37
-9.56919e-36
2.95734e-34
-3.22907e-42
-2.26707e-40
1.12576e-35
3.23479e-42
-1.13592e-41
1.91449e-41
9.15245e-43
1.93042e-43
9.18373e-42
-6.22437e-39
-9.58066e-39
2.96862e-37
-2.319e-40
-1.40104e-38
2.87129e-37
-4.00023e-41
7.41912e-41
1.207e-39
4.07269e-41
-1.12063e-40
2.00468e-40
1.99453e-34
-5.39332e-40
4.27991e-34
-3.30728e-34
-2.72414e-39
9.88735e-32
-1.569e-34
-1.01068e-38
1.73873e-31
-1.31695e-40
-2.99161e-39
9.84583e-34
-7.23262e-44
2.15799e-41
8.52336e-40
-2.31583e-47
3.04825e-44
5.37797e-43
1.12823e-46
2.08237e-47
3.69061e-46
-1.65106e-42
-2.44237e-40
1.43576e-39
-7.8969e-52
2.70164e-43
3.94479e-41
4.57724e-51
9.75035e-52
1.4951e-50
1.29255e-40
2.18236e-39
-1.79662e-41
-1.87563e-37
1.94779e-29
-1.69941e-31
-6.50471e-47
1.03168e-39
1.30364e-36
5.71692e-47
-1.76e-46
3.81711e-46
4.47801e-47
8.55585e-48
1.20804e-46
1.80196e-44
0
-3.62745e-46
-2.73753e-45
5.74787e-42
-1.41415e-44
-1.00033e-45
0
-1.99909e-46
-1.14011e-45
2.35168e-45
1.659e-46
5.60133e-46
7.94272e-45
-2.86895e-45
2.19586e-44
1.20913e-43
-3.72243e-44
5.47124e-44
-9.83064e-44
4.87972e-43
-2.31291e-39
5.31143e-34
-1.82125e-35
-1.35737e-44
3.27673e-38
-2.38754e-39
2.90416e-45
2.84792e-45
4.44244e-44
1.57244e-40
3.57226e-41
2.13625e-39
-1.68038e-45
2.85983e-36
-2.8772e-37
7.09465e-46
6.98116e-45
1.49493e-46
1.89849e-38
2.98758e-39
2.03078e-37
-7.94694e-37
3.85139e-33
-2.24288e-34
-4.30924e-39
2.04177e-35
-4.23091e-37
-1.07925e-41
2.71984e-37
-2.2532e-38
1.2551e-41
-3.88012e-41
6.90845e-41
3.50288e-42
8.12657e-43
2.59953e-41
-2.78858e-41
1.15904e-38
-5.82594e-40
-9.56097e-43
1.2136e-38
-2.9679e-40
-3.50217e-42
2.66891e-43
8.07554e-42
3.6649e-42
-1.44171e-41
1.84672e-41
-9.10233e-39
7.56663e-36
-2.44142e-39
3.33428e-37
3.28563e-36
-1.26694e-37
-1.23712e-38
9.82405e-35
-7.52749e-36
1.10536e-39
1.18094e-37
7.613e-40
2.75681e-39
5.1638e-40
1.18268e-38
-2.17939e-29
3.87028e-28
-4.74357e-29
-1.15575e-28
-1.03483e-28
1.41143e-27
-1.11277e-28
-6.90262e-29
5.29803e-28
8.37225e-29
-3.35763e-28
1.02455e-27
1.48195e-27
8.06939e-30
5.77446e-27
-1.165e-24
-1.66517e-25
1.70207e-23
4.66952e-25
-5.52458e-24
7.90307e-23
5.21869e-25
-3.19188e-27
3.34313e-24
8.54417e-25
1.53268e-25
1.8948e-24
1.03033e-23
8.33039e-23
-1.99339e-25
-2.53326e-23
2.51058e-20
-3.09108e-22
-3.07113e-26
2.47527e-22
-2.43368e-25
-1.60878e-27
6.16078e-27
8.48418e-26
1.88926e-27
-4.60585e-27
1.09003e-26
4.47154e-27
3.2855e-26
3.68683e-28
-3.35988e-25
-1.9192e-24
3.76406e-23
-1.44966e-24
6.67214e-24
-8.25209e-48
-2.58207e-38
9.39589e-38
1.53872e-48
1.78055e-48
2.92198e-47
1.65629e-41
2.76828e-42
1.95091e-40
-2.96972e-49
-2.73512e-37
2.04058e-36
1.3179e-49
2.24669e-50
1.14325e-48
2.69112e-37
4.6554e-38
3.2662e-36
-8.26264e-37
-5.17852e-34
9.44419e-33
-8.70813e-39
-5.56645e-37
2.63925e-35
-7.61658e-42
-4.52271e-38
3.81305e-37
7.9938e-42
-2.58996e-41
4.6876e-41
1.81829e-42
3.5113e-43
1.73256e-41
-3.11935e-42
-3.22785e-40
9.77873e-40
-9.41031e-43
-5.69835e-41
2.49102e-40
-2.211e-42
2.95979e-43
4.98604e-42
2.37141e-42
-8.07774e-42
1.14266e-41
4.24376e-41
-3.49691e-41
8.88883e-41
2.85851e-42
-1.48715e-40
7.20336e-40
-5.00876e-41
-1.19678e-40
1.51794e-39
-5.44368e-44
-5.15196e-41
3.33815e-40
-1.3311e-51
9.41148e-45
3.75762e-43
-1.716e-55
5.89037e-52
1.01164e-50
0
1.37089e-55
2.51186e-54
-8.50012e-35
-3.79484e-35
1.55128e-33
-1.0892e-35
1.31251e-35
1.6561e-33
1.07215e-34
2.73569e-35
3.94774e-34
2.04215e-29
-7.34914e-32
2.12448e-28
-1.86908e-28
-3.76933e-27
1.8618e-25
-6.93044e-29
3.47252e-30
1.00634e-27
5.25272e-29
-1.59568e-28
5.9425e-28
1.1784e-27
1.77888e-28
2.78866e-27
8.58085e-25
-9.22589e-27
1.42683e-23
-1.69347e-23
6.15215e-21
-1.67429e-26
-4.68655e-25
9.23644e-23
-1.68251e-26
4.37674e-26
-8.97715e-27
1.81394e-26
-1.20307e-29
1.11668e-26
1.01288e-25
-1.60751e-28
5.41077e-28
4.12071e-27
-3.45839e-29
8.14325e-28
-9.17797e-30
6.05944e-27
-6.02648e-32
-3.58185e-29
6.37692e-26
-2.82077e-33
3.22968e-31
-6.1612e-34
4.54724e-33
6.84111e-34
1.45734e-33
-9.09327e-36
2.11126e-32
3.44642e-34
-1.21117e-39
1.76052e-32
-1.58167e-41
1.7308e-33
-2.65199e-41
3.51654e-41
6.05377e-40
6.64129e-41
-5.15445e-39
7.54224e-39
1.56556e-40
-5.3764e-40
1.77632e-39
9.62251e-41
-9.80013e-41
5.27775e-40
6.78519e-41
5.95509e-41
-5.77547e-42
9.5542e-42
-9.26153e-41
1.05433e-41
-7.72547e-41
2.10654e-41
5.58926e-42
-1.16043e-40
4.13326e-40
3.27412e-40
-1.18484e-39
-3.63589e-40
2.53249e-39
1.92054e-40
-6.90532e-40
1.95788e-39
2.45888e-41
4.68332e-40
-8.09558e-40
1.89627e-39
-2.06574e-39
-8.36266e-40
8.546e-39
2.8791e-40
-2.68232e-39
-3.63272e-39
1.44939e-38
2.12636e-40
6.6503e-40
-3.49518e-38
2.77603e-37
5.36853e-38
-3.85977e-39
-4.15491e-39
6.35374e-37
1.11787e-37
2.45807e-36
-3.29279e-34
4.42817e-33
-6.01653e-36
-6.24803e-39
4.36824e-33
1.6299e-37
-4.54064e-38
-2.63499e-38
5.74284e-35
6.31489e-37
1.61984e-36
-5.85773e-37
1.36202e-35
-7.83846e-38
-4.4733e-37
1.59128e-35
4.17541e-38
9.75656e-38
-1.74572e-37
1.60584e-36
5.59514e-38
9.31561e-38
1.19457e-37
-2.5794e-42
1.30989e-36
2.23654e-43
5.05755e-43
9.1481e-42
-7.99934e-38
3.68123e-38
1.00944e-36
-1.7948e-38
4.9204e-36
2.44788e-38
-1.02152e-37
1.81864e-37
9.71899e-39
2.08085e-38
-7.44996e-38
1.5834e-37
-9.44909e-39
6.31734e-38
7.74657e-39
-1.33873e-38
-1.88868e-38
4.9649e-38
-1.26738e-38
3.50744e-38
1.13019e-38
-3.03591e-38
-2.04957e-38
6.35796e-38
3.58345e-39
-4.17459e-39
2.06351e-38
-1.29696e-39
8.98914e-39
-4.06702e-39
-1.62381e-39
7.20932e-39
-1.41239e-38
-2.73e-39
2.08191e-38
-6.48932e-38
-4.0421e-38
1.32258e-37
7.48387e-38
-1.57813e-37
-7.93663e-38
2.61362e-37
4.0312e-40
1.06506e-37
-1.36223e-36
2.11572e-36
3.58051e-37
8.89446e-36
-7.55535e-39
1.67263e-37
1.21636e-35
3.15401e-37
-1.4764e-38
3.21113e-36
8.84098e-39
4.47528e-37
1.7038e-36
-5.10848e-37
1.21313e-38
1.23766e-37
4.84075e-37
8.55501e-38
1.4858e-37
4.16283e-39
5.86096e-36
5.01495e-37
3.48516e-38
-1.37013e-36
4.15239e-36
5.76196e-38
-1.52829e-40
2.8105e-37
1.06898e-36
-3.4171e-37
2.58477e-38
2.65577e-37
1.19685e-36
3.54441e-37
1.71238e-37
7.78798e-36
-3.65131e-37
1.81834e-37
-6.66121e-39
1.25888e-36
1.39403e-37
4.58368e-38
-4.99131e-39
1.38716e-37
3.50027e-37
5.01372e-36
-2.3214e-36
6.99024e-35
2.17252e-34
-9.01303e-36
-1.2601e-35
5.6123e-33
1.70812e-32
-2.30596e-37
2.06211e-34
1.7178e-36
1.93839e-37
5.2775e-36
-8.68922e-37
2.1835e-30
4.35621e-29
-9.01833e-30
-5.67914e-35
2.97805e-28
3.33662e-36
2.04763e-34
-3.43677e-40
5.29534e-35
-7.28091e-39
1.30071e-38
9.51863e-39
-5.90071e-38
7.86225e-38
3.80418e-39
-1.8146e-38
3.29557e-38
5.21516e-40
-1.24622e-39
6.70649e-39
-3.93725e-40
2.34461e-39
-1.77364e-39
-1.03187e-39
2.46004e-39
-6.10638e-39
-3.86736e-39
9.37538e-39
-2.60455e-38
2.66931e-38
3.1844e-38
1.10341e-37
2.50866e-39
2.07132e-38
-3.92091e-39
7.08328e-39
-3.56033e-38
8.38594e-38
2.11089e-37
0
1.17035e-33
1.64602e-33
-7.34504e-19
-6.5096e-15
2.66176e-13
1.16577e-14
1.40423e-14
-1.86556e-19
-3.76874e-34
-1.081e-33
-1.53963e-33
3.34266e-15
-3.89105e-19
2.1564e-14
1.78106e-14
-1.52262e-13
-3.00333e-34
1.01784e-18
1.82161e-19
7.14108e-18
1.41384e-18
3.53766e-35
4.27891e-35
-2.65519e-34
-6.50363e-37
2.83035e-24
2.41276e-24
2.19007e-23
-1.98061e-37
3.72378e-24
1.76822e-24
1.76577e-23
-2.13199e-37
2.03498e-24
1.39793e-24
1.26195e-23
-1.787e-35
2.83859e-24
4.81346e-25
3.62614e-26
-2.91537e-40
-5.159e-25
4.32127e-24
-1.94617e-26
-4.04325e-26
2.87289e-25
1.55758e-26
-2.29526e-40
1.80732e-24
1.08649e-26
4.762e-26
1.40778e-17
-4.71868e-20
-1.16319e-17
4.20582e-19
6.4339e-16
3.72757e-18
1.4589e-17
-1.1383e-16
4.1767e-16
-2.82518e-16
4.31019e-16
5.2596e-16
5.98563e-15
1.51702e-16
-1.56176e-17
-1.67659e-15
2.77417e-13
1.90298e-14
-3.09843e-15
-5.88888e-15
6.02643e-12
3.68604e-13
-1.3615e-13
-4.34108e-14
3.20581e-12
-2.63101e-12
5.04042e-12
4.3394e-12
2.25522e-11
-2.15858e-12
8.98152e-13
-2.51512e-13
1.48906e-10
1.4041e-11
4.55038e-12
-1.19777e-11
7.6439e-10
2.38994e-11
-3.48868e-11
1.32409e-11
1.53531e-09
1.49019e-10
4.57397e-10
-1.89666e-10
1.12669e-09
-6.08458e-10
3.59214e-10
1.39979e-09
3.29629e-09
3.85059e-10
-8.50774e-10
5.75841e-11
1.73405e-08
3.49107e-09
-3.19755e-09
-5.48462e-09
6.09111e-08
-7.83499e-09
-6.20829e-09
1.06534e-09
8.88916e-08
-4.31137e-08
7.18397e-08
-7.05244e-09
3.15594e-08
-1.27883e-07
1.39923e-07
9.25828e-08
3.56067e-08
-6.2723e-08
5.57602e-08
3.61428e-08
5.59442e-08
-9.06526e-08
1.50053e-07
-8.3183e-09
1.50148e-07
2.2332e-07
-3.07e-07
6.56078e-08
1.9405e-07
6.40173e-08
-3.70714e-07
2.01554e-07
9.9854e-07
-3.08277e-07
-1.761e-07
2.92032e-07
4.4072e-06
-1.13265e-06
-1.25952e-07
-1.97953e-07
1.36287e-05
8.73502e-07
8.55277e-08
-3.70491e-06
3.08229e-05
1.03748e-06
-6.82557e-06
-1.09206e-06
4.02828e-05
3.69922e-06
1.76142e-05
-2.39755e-06
2.4549e-05
-1.10624e-05
-7.97222e-06
4.72193e-05
3.33452e-05
-2.33153e-06
-5.49111e-06
1.89778e-05
6.44675e-05
1.36024e-05
-2.1877e-05
4.42672e-06
0.000155818
9.63227e-05
-2.28843e-05
-0.000110093
0.000222099
0.000111586
-6.0019e-05
-4.30642e-05
0.000120032
-0.000102082
0.000113286
0.000144598
0.000213226
8.96882e-05
-4.79574e-05
-6.85489e-05
0.000532226
-8.17009e-05
1.44137e-05
-9.10396e-05
1.32299e-05
4.55598e-05
-8.48747e-05
-0.000403918
1.49704e-06
-0.000125597
0.000276883
-0.000376796
-0.00054069
0.000337908
-3.07139e-05
-8.80932e-05
-0.000607998
-0.000144818
-0.000117396
-0.000240878
2.55786e-05
-9.58387e-05
-0.000103854
-0.000252383
-3.66063e-06
-0.000393343
-0.000154916
-0.000169304
0.000142233
-0.000141388
-0.000115954
-9.71834e-05
0.000153185
-4.74688e-05
-5.46119e-05
2.31611e-05
4.76943e-06
5.08613e-05
-2.51191e-06
1.7449e-06
2.31751e-05
-2.35811e-06
7.37579e-05
-1.24028e-05
-4.3594e-05
1.3034e-05
0.000125681
6.16528e-05
-4.07803e-05
0.000133263
-1.23154e-05
0.000302034
-5.5657e-05
-0.000187642
0.0001905
0.000209861
3.49147e-05
0.00016172
-5.31147e-05
0.000224453
-7.08413e-05
-3.17366e-05
0.000143966
-8.40012e-05
0.000158477
-2.8762e-05
-0.000124246
2.38879e-06
3.90035e-05
-0.000109984
8.45684e-05
0.000266248
-0.000192577
-0.000165076
-5.59311e-05
0.000418078
4.62344e-05
-0.000142153
-8.49137e-05
0.00012768
-5.98701e-05
7.11297e-05
-0.000115223
-5.7146e-05
5.09681e-05
-1.88786e-05
-7.98726e-05
0.00011159
-2.58714e-05
-1.44857e-05
1.04116e-05
-8.5667e-06
-1.38702e-05
-1.40646e-05
1.52898e-05
-2.2345e-05
-9.06471e-06
-1.66928e-05
-3.32813e-06
1.57035e-05
-1.64177e-05
-2.83759e-05
6.47135e-06
-1.70342e-05
1.9908e-06
3.18035e-07
-5.4343e-06
2.97153e-07
-4.4865e-06
-7.37961e-08
-2.13543e-06
-1.70545e-07
-4.96041e-07
-4.22171e-08
2.75193e-06
-2.3897e-06
1.72416e-06
-1.86954e-06
1.14379e-05
4.82504e-07
-1.69837e-05
1.13563e-05
1.07211e-05
-5.43461e-07
2.6978e-06
1.3181e-06
-5.51049e-06
-6.27008e-06
1.37386e-05
-1.32122e-06
-1.76403e-05
-1.82737e-06
2.51419e-05
-1.83185e-05
4.29881e-05
-8.67999e-06
-1.19381e-05
-1.54337e-06
-6.97284e-06
-1.88639e-06
-4.87997e-06
3.70849e-06
4.81334e-06
4.4355e-06
-4.57609e-06
-3.85096e-06
-2.41125e-06
-8.58987e-06
6.79618e-06
-2.63836e-06
-4.22742e-06
-1.27747e-06
4.8178e-06
-8.62832e-07
-2.03222e-06
-1.14961e-07
-1.59602e-06
1.12977e-08
-3.70562e-07
-5.0416e-07
6.54542e-07
-5.09453e-07
-1.2998e-07
-3.03679e-07
4.034e-08
2.3455e-07
-1.8279e-07
1.94862e-08
3.91117e-09
-8.62867e-08
-8.17688e-09
1.87536e-08
3.31721e-08
-3.66224e-08
1.18985e-07
4.31401e-08
-9.59685e-08
3.94274e-07
-3.41036e-07
6.62493e-07
1.64611e-07
-6.24146e-08
-2.81523e-08
5.30519e-07
-1.80106e-07
-1.26743e-06
3.69355e-07
-3.65887e-07
-4.68261e-07
1.68712e-07
-1.68618e-07
-5.59096e-07
-9.12463e-08
1.75843e-07
-1.97726e-07
-1.23881e-07
7.85187e-08
-4.9775e-08
-4.71851e-08
-4.76257e-09
1.72007e-08
-2.61468e-09
-2.67142e-08
2.55479e-08
-4.50556e-08
3.522e-08
4.34549e-09
-4.86199e-08
1.03324e-08
-1.0102e-08
-7.98495e-08
-2.53572e-08
-2.35452e-08
-8.03471e-09
-1.95554e-08
-5.32086e-09
2.10167e-10
-6.28933e-09
6.48123e-09
-3.95843e-09
-4.69388e-09
3.69425e-09
3.63863e-08
-3.10885e-09
-4.85105e-09
-2.58055e-09
-6.17359e-09
1.01592e-08
1.62601e-10
-4.67697e-09
-6.57325e-09
6.29097e-09
-5.00353e-09
-1.38701e-08
-1.5485e-09
-5.27944e-09
-5.05537e-09
-3.42041e-10
-1.40867e-09
-1.66656e-08
-8.06663e-09
1.21399e-08
-8.68901e-09
1.45631e-09
1.79582e-10
-2.62063e-09
-1.35323e-09
1.66252e-10
1.41884e-09
-1.28095e-09
-1.20501e-09
1.15552e-09
-1.10487e-09
-2.88586e-10
-3.43807e-10
-2.52913e-10
3.06384e-10
-2.10486e-10
-3.85066e-10
6.93989e-11
-9.47385e-11
6.47966e-11
-5.53012e-12
-1.30519e-11
5.33736e-12
-2.07059e-12
1.21899e-11
-1.51617e-11
-1.3747e-11
1.57741e-11
5.67808e-11
7.28408e-13
-3.59735e-12
6.97583e-11
-3.71482e-11
2.4916e-10
2.62244e-11
-5.21949e-11
5.41986e-12
1.95226e-10
6.39288e-11
-2.20544e-10
6.10817e-11
-5.08492e-11
-7.14493e-11
2.98522e-11
-2.6769e-11
-8.51222e-11
-6.9782e-11
8.11744e-11
-2.9096e-11
-8.78061e-12
1.67405e-11
-5.56344e-12
-3.67792e-12
-1.50646e-12
5.5252e-12
-1.27871e-12
-3.40287e-12
1.35315e-12
-2.79736e-12
-2.72047e-13
-4.88913e-13
-3.9194e-13
2.91113e-13
-6.90357e-14
-3.07603e-13
1.20295e-13
-1.5937e-14
2.13712e-14
-3.41742e-15
-6.795e-16
-1.2909e-15
-2.70567e-15
5.92964e-16
-1.07632e-15
-2.07033e-16
7.65811e-16
8.83847e-14
-2.66353e-14
-5.97303e-16
6.59384e-14
-1.18748e-14
5.52211e-13
1.83408e-14
-1.15054e-13
-1.93868e-14
2.83215e-13
1.75365e-14
-4.63381e-13
-1.25603e-14
-3.19065e-14
-1.10816e-13
8.03862e-15
-3.26104e-14
-1.29648e-13
-1.05782e-13
1.33668e-13
-4.76748e-15
8.05128e-15
-2.47456e-15
-2.86622e-16
-9.19465e-19
-1.45899e-16
7.17221e-16
-3.0744e-17
-6.31385e-19
2.85113e-17
-1.12341e-17
-4.98702e-18
-6.72249e-17
-7.93604e-18
-2.6896e-17
-5.71938e-25
-1.44477e-19
-8.0699e-18
-4.53528e-42
-2.37754e-35
-1.54011e-25
-7.14766e-43
2.20749e-42
8.39123e-42
4.25503e-42
0
-1.02671e-35
-1.90558e-20
-4.57206e-18
-6.99212e-40
1.06409e-20
-7.64904e-19
4.30326e-41
3.43118e-40
0
3.44653e-37
-4.32703e-19
-5.36914e-19
7.42751e-18
1.09112e-18
-1.16123e-27
-8.83423e-18
2.4994e-18
-7.97672e-19
3.14809e-18
2.53269e-18
5.00865e-16
1.67338e-17
-3.84066e-17
-1.61384e-16
1.38872e-13
-7.40574e-16
-3.39459e-14
-1.6095e-15
8.10276e-13
1.50467e-13
-2.05631e-14
4.14043e-12
4.06153e-13
-2.48893e-14
2.68271e-12
-2.25852e-12
3.26031e-12
2.72618e-12
1.14691e-11
9.26916e-13
-9.87569e-13
-2.07359e-12
1.4292e-10
4.53621e-12
-3.12271e-11
-4.17599e-12
5.16147e-10
7.42735e-11
-6.10434e-11
1.44418e-09
9.9948e-11
-3.06178e-11
8.01773e-10
-8.26971e-10
1.15408e-09
9.0255e-10
2.02126e-09
1.05396e-10
-1.58285e-11
-2.80232e-10
8.78981e-09
1.17124e-10
-2.97784e-09
3.63771e-11
1.85034e-08
3.10195e-09
-3.71643e-09
2.99454e-08
4.31243e-09
-4.18992e-09
1.36144e-08
-1.87187e-08
2.33508e-08
2.13089e-08
2.63167e-08
1.7874e-08
-9.27811e-09
-2.53444e-09
1.97494e-07
6.30939e-08
-8.4821e-08
-3.75659e-08
1.08504e-06
1.03622e-07
-2.68238e-07
3.13496e-06
3.53442e-07
-5.94719e-07
1.90244e-06
-6.33175e-07
2.48889e-06
1.13375e-06
4.45585e-06
1.34329e-06
-7.80321e-07
-1.54515e-06
1.52751e-05
5.11977e-06
-4.80932e-06
-5.25521e-06
3.46285e-05
1.64753e-05
-2.00779e-05
-4.94318e-06
4.64948e-05
4.06633e-05
-1.31529e-05
1.59942e-05
5.08373e-05
4.59783e-06
-3.5404e-06
2.97999e-05
-1.20858e-05
-1.02593e-05
-1.82392e-05
8.67536e-05
-4.08534e-05
-3.83081e-05
8.12001e-05
0.000185647
-0.00019287
-0.000100892
0.000226447
0.000185395
-0.000109958
0.000463573
0.000109092
-2.7532e-05
0.000203941
-0.000111338
-0.000558512
0.000170135
-0.000163204
-0.000162255
-0.000141809
5.72698e-05
-0.000145629
-0.000186179
3.87901e-06
1.20275e-05
2.25439e-06
-3.15342e-05
3.76011e-05
-7.94069e-06
-0.000100431
0.000128453
4.0476e-06
-5.62578e-05
0.00047328
0.000158416
-0.000365977
-9.85454e-05
0.000732296
0.000181454
-0.000164123
0.000247067
-0.000192409
-0.000410504
9.35362e-05
-1.47933e-05
-0.000174069
5.53423e-05
-2.55995e-06
0.000320144
-0.0001036
-0.00065205
0.000368068
0.000393638
9.55979e-05
-2.47596e-05
0.000134264
-4.25345e-05
0.000125179
-0.000584889
-5.33409e-05
9.60895e-05
-0.000268561
1.5739e-06
-8.56741e-05
-0.000784951
-0.000640163
0.000150294
-9.38727e-05
-0.000374647
0.000136567
-0.000120979
-0.000267529
-0.000149949
-0.000167658
-0.000180587
0.00023489
-9.33048e-05
-0.000285392
-1.10608e-05
0.000113607
-0.000510703
-3.82106e-05
-0.00024389
-0.000252709
0.000245851
-5.75497e-05
-0.000302239
-0.000107246
-8.01611e-05
-0.000316563
-0.000108669
0.000169052
-5.34262e-05
-0.000106529
-1.88221e-06
0.000214483
-7.37192e-05
2.73706e-05
8.33253e-05
-6.08492e-05
-3.9725e-05
1.61924e-05
5.16997e-05
-1.97896e-05
3.55338e-06
3.00696e-05
1.02867e-05
1.53165e-05
8.36327e-06
-3.00247e-06
1.2001e-05
1.60389e-06
-6.69938e-06
2.34056e-05
-6.6438e-06
-2.85189e-05
-1.14736e-05
1.91135e-05
2.11301e-05
-2.82357e-05
-1.43907e-05
3.33411e-05
5.11454e-05
-5.82209e-05
6.11667e-05
6.64629e-05
-1.01465e-05
5.23345e-05
-2.28066e-05
-7.09687e-05
-4.09487e-05
0.000135239
5.82357e-05
-9.71226e-05
0.000133917
9.79335e-05
-8.86002e-05
-5.18555e-05
-0.000162242
9.75396e-05
0.000173823
-5.35569e-05
-3.35221e-05
-6.2292e-05
3.8921e-05
-1.48778e-05
-3.76694e-05
4.42807e-07
1.06586e-05
5.04424e-06
-8.14382e-06
-2.67586e-05
9.94169e-07
-5.36407e-06
2.51551e-06
3.86092e-06
-6.23634e-06
5.67079e-06
-1.30246e-05
5.61352e-06
6.92242e-06
7.15174e-08
-1.74023e-06
1.17288e-06
-3.71432e-06
5.41352e-06
7.83475e-07
7.80673e-07
-1.74435e-08
-4.57167e-08
2.76021e-07
-9.77872e-09
6.00158e-08
-5.10282e-08
7.94063e-08
2.78198e-08
1.42588e-08
1.68098e-08
-5.76412e-08
7.78122e-09
3.02951e-08
-2.01681e-08
8.9914e-08
-1.61551e-08
-4.81502e-07
5.03121e-07
1.60395e-08
1.02301e-08
-2.00355e-06
6.59361e-07
-2.24152e-08
-3.90801e-06
7.20475e-07
2.89795e-07
-2.01076e-06
3.51484e-06
-2.85395e-06
-4.56702e-06
-7.43036e-06
4.36176e-06
-7.68848e-07
-1.77062e-06
9.74997e-06
1.18918e-06
1.16666e-05
1.36613e-06
-2.38972e-06
2.31513e-05
2.47198e-05
-9.90868e-06
1.97827e-05
-2.20959e-05
3.38286e-05
5.98022e-06
4.79498e-05
2.70999e-05
-7.77969e-06
-1.36348e-05
0.00015691
9.81789e-05
-9.1838e-05
-4.57304e-05
0.000260855
-5.73033e-05
0.00038202
0.000396634
-0.000277565
3.61041e-06
0.000376542
0.00039158
-3.98779e-05
1.94582e-05
0.000224974
-0.000116835
0.000331672
0.000218258
3.1995e-05
0.000123952
0.000119509
1.67345e-05
3.87357e-05
-7.00308e-05
4.8636e-06
-1.86765e-05
0.000167151
-2.76287e-05
0.000189519
0.000267169
-8.83417e-05
0.000304895
-0.00013076
0.000509681
0.00030667
-0.000289428
-3.5815e-05
0.000755256
0.000203406
-7.68234e-05
0.000998009
0.000337071
-0.000218367
0.00118989
0.000448351
-0.000273147
0.000662751
-0.000376247
0.00055973
0.000419511
0.000146375
-0.000289609
-0.000343559
-0.000955909
0.00012791
-0.000493304
-0.000409353
-0.0003251
0.000162731
-0.000256409
-0.000414588
0.000153637
-0.00018133
0.00011077
6.06334e-05
0.000254245
2.78711e-05
-0.000827348
0.000519868
9.79853e-05
-2.11374e-05
0.000155199
6.1419e-05
-1.08824e-05
-6.95372e-05
0.00096697
-5.5057e-05
-0.000419489
1.86483e-05
-0.000477664
-0.00108691
-6.98664e-06
-0.000291148
-0.000987421
-2.72138e-06
-4.48322e-05
-0.000891837
-2.33955e-06
0.000123262
-0.000452948
-0.000256174
-4.93989e-06
-4.11128e-06
0.000133727
-0.00067465
-0.000107752
0.00029307
-0.000290018
0.000470711
-0.000355978
-0.000714326
0.000175651
-0.000642653
-5.67233e-05
-0.000352972
0.00027649
-5.3075e-05
-0.000216131
-0.000167415
0.000223523
-5.26093e-05
-5.36781e-05
-7.94297e-05
8.60672e-06
0.000142762
-1.23678e-05
-5.01351e-05
4.55197e-06
6.41268e-05
-1.71323e-05
-0.00010668
2.24621e-05
5.36626e-05
-0.00011887
-2.11185e-05
-3.33031e-05
-0.000162233
-3.93946e-05
-9.41257e-05
6.69675e-05
-1.45483e-05
-3.15107e-05
-4.06522e-05
2.66648e-05
-1.14668e-05
-1.41984e-05
1.08641e-05
-4.37067e-05
-1.61043e-05
2.82171e-05
-2.5003e-05
1.27616e-07
2.38435e-05
-7.98606e-06
-1.30196e-05
-4.72265e-06
1.77809e-05
9.64183e-07
-2.21029e-06
-1.18156e-06
-6.47776e-08
3.81909e-06
-2.49643e-07
5.80307e-07
1.42915e-06
3.18003e-07
7.22127e-07
7.23489e-07
4.07959e-07
1.64549e-07
-2.02727e-07
2.94477e-07
1.65148e-06
-1.99064e-07
5.80759e-06
1.47792e-06
-1.89041e-06
-9.765e-07
4.12691e-06
1.1027e-07
4.20786e-06
2.91016e-06
-2.84297e-06
6.13441e-07
3.42595e-06
1.06888e-06
8.98071e-07
-5.09715e-07
5.59784e-06
6.44635e-06
-6.48867e-06
-1.91143e-06
2.32951e-05
1.51156e-05
-1.47987e-06
-2.70518e-05
3.71577e-05
3.20155e-05
-4.31673e-06
6.24369e-05
7.55896e-06
-2.08492e-05
4.69625e-05
1.32493e-05
1.38855e-05
2.73347e-05
-1.05752e-05
2.16967e-05
6.53017e-06
5.59319e-07
1.31186e-05
8.10842e-05
6.74417e-05
-2.81467e-05
0.000125316
2.5361e-05
0.000123484
8.51959e-05
-9.92621e-05
7.06308e-05
0.000434387
0.000109067
-4.23157e-05
0.000177929
0.00013155
0.000383116
-2.29367e-06
-0.000237961
0.000184094
-4.15695e-06
0.000116194
0.000256236
0.000103653
-0.000400052
0.000130906
0.000876843
-0.000455112
-1.3444e-06
0.000978342
-7.01939e-05
0.000117718
0.0010977
4.15368e-05
-5.23327e-05
-3.3774e-05
-0.000290726
-0.000144984
-0.000973006
-0.000480168
-0.000953414
-0.000493635
0.000180563
-0.000335933
-0.000253921
-0.000418554
-0.000148743
-0.000426537
1.5382e-06
-0.000107042
-7.59808e-05
-0.000126639
-0.000273329
-2.39543e-05
0.000453233
-0.00068427
0.000296291
-0.000713632
-0.000356316
0.000179796
0.000185627
-0.000438594
-0.000281224
0.00013345
-0.000246292
0.000184033
1.10236e-06
-0.000160588
-0.00011274
0.00011409
-0.000160374
0.000117909
-0.000147408
1.00242e-06
0.000165275
-6.02307e-05
-7.07034e-05
3.76403e-08
1.88592e-05
-3.71029e-05
-1.06651e-05
-2.02994e-05
-2.89468e-06
-2.07526e-06
1.48526e-06
-3.77829e-05
4.72151e-06
3.74933e-05
1.86789e-06
1.0973e-05
-1.88349e-05
5.5361e-06
9.83745e-06
-2.7989e-06
1.11347e-05
-8.69538e-07
5.59069e-06
1.13221e-05
7.17041e-07
2.20661e-06
5.94307e-06
1.00267e-07
-1.40502e-06
5.63059e-07
2.07085e-06
1.97815e-07
1.01651e-06
8.19635e-07
9.91358e-07
1.04036e-06
-1.35385e-06
-9.65515e-07
5.92837e-07
6.38303e-07
-1.77225e-07
-6.67145e-07
-2.80045e-07
-4.27144e-07
-1.85103e-08
2.84046e-07
-2.12049e-07
-7.74609e-07
-4.51475e-07
-5.1359e-07
-8.7993e-07
2.15075e-07
4.40187e-07
2.81327e-09
-2.20319e-07
-4.04967e-07
2.56421e-08
3.39712e-07
-1.00126e-07
-1.5366e-07
-2.10307e-08
-1.54139e-08
-1.01315e-07
-4.41953e-08
1.10146e-07
7.01441e-09
1.84808e-08
-3.66872e-08
7.383e-08
9.49008e-09
-1.05586e-08
-1.18291e-08
6.9076e-09
-3.62952e-10
-1.45804e-08
4.90166e-09
-6.71033e-09
9.55441e-10
-1.64709e-10
5.86021e-09
-6.8729e-09
-1.02163e-08
8.59427e-09
6.67684e-10
-1.12064e-09
2.49764e-08
-1.38765e-09
-7.33723e-09
-1.83805e-09
5.85799e-08
-3.39497e-09
2.22379e-08
3.45542e-08
1.75826e-08
5.11541e-08
-2.03797e-08
-3.97143e-08
2.97612e-09
8.04515e-08
4.70544e-08
-2.0791e-08
1.35179e-07
6.26309e-08
-9.83786e-08
-2.36314e-08
-3.32548e-08
2.71421e-07
2.57522e-08
-4.11903e-08
-4.3778e-09
1.41654e-10
7.65208e-09
-1.12771e-08
1.52505e-09
-1.69274e-09
-9.58366e-09
-1.12786e-10
3.83883e-10
-3.10819e-09
-7.69909e-10
-6.91835e-10
-1.73797e-10
8.89093e-10
-2.46167e-09
-4.3635e-09
2.46519e-10
-1.26789e-09
-2.38894e-10
2.29403e-10
-1.93303e-10
-2.09549e-10
-6.74238e-11
-5.29522e-11
-2.97961e-10
5.51736e-11
-6.65921e-11
1.63645e-11
-7.36395e-12
6.69952e-11
-6.91426e-11
-9.09156e-11
8.72392e-11
1.46575e-11
-2.59636e-11
4.56897e-10
4.46706e-11
-1.1634e-10
-4.3692e-11
1.35987e-09
1.52012e-11
-4.96802e-11
6.32078e-10
-6.17729e-10
9.4743e-10
8.96804e-10
1.61045e-09
-1.89771e-10
-6.49491e-11
2.04006e-11
-2.4871e-10
5.92017e-09
-4.42773e-10
-1.37962e-09
1.28684e-10
1.51964e-08
-2.77592e-10
1.12798e-09
1.29377e-09
-2.50631e-09
1.24743e-08
6.68179e-09
-1.89867e-08
1.57494e-08
1.2069e-08
-1.02384e-08
8.30786e-08
3.06611e-09
-1.71211e-07
1.62498e-08
9.66664e-08
2.77845e-08
1.01716e-07
7.00501e-08
-1.57436e-07
9.08483e-08
-5.6879e-08
4.91413e-08
5.73919e-08
1.45421e-08
-2.09722e-08
2.84282e-08
7.81702e-08
-6.62669e-08
1.06126e-07
-8.36876e-08
-1.1874e-07
2.52401e-07
-6.37674e-08
7.83535e-08
3.92659e-07
4.65951e-08
-2.41471e-07
6.64506e-07
2.99187e-08
5.15022e-07
-8.62836e-07
3.82786e-07
3.55976e-07
-9.92458e-07
9.22057e-07
-1.11872e-06
-1.9877e-06
1.52189e-06
-7.72821e-08
-3.78323e-06
4.76591e-06
-1.07021e-06
8.95973e-06
-1.61354e-06
1.08626e-05
5.10535e-06
-2.72834e-07
-2.67213e-06
1.49788e-05
6.93057e-06
1.29813e-05
-7.44973e-07
2.73014e-05
2.74387e-05
2.45257e-07
-6.4739e-05
6.16882e-05
5.56882e-07
-5.09878e-06
7.40431e-05
2.73171e-06
-2.82155e-05
-5.62801e-06
0.000150087
-5.92948e-05
1.93174e-05
-8.28826e-05
0.000165848
0.000128884
-0.000123034
-0.000102748
7.159e-05
-0.000226533
-4.14388e-05
0.000351378
-0.000215861
-0.000171442
-5.11711e-05
0.000627527
-0.000307279
-4.993e-05
0.000823258
-0.000208369
-6.56286e-05
0.000261619
0.000183402
0.00051316
-0.000117499
-2.49489e-05
-0.000353019
6.57526e-05
0.000422789
0.000991946
-0.000161709
-0.0007529
-0.000219989
-0.000197985
-0.000276833
0.000457521
-0.000910406
-0.000190857
-0.000209935
-0.000646962
-0.000133508
-9.56972e-05
0.000144132
-0.000378389
-0.000100931
-0.0001228
-0.000503997
-7.82158e-05
-0.000286118