/*--------------------------------*- C++ -*----------------------------------*\
  =========                 |
  \\      /  F ield         | OpenFOAM: The Open Source CFD Toolbox
   \\    /   O peration     | Website:  https://openfoam.org
    \\  /    A nd           | Version:  7
     \\/     M anipulation  |
\*---------------------------------------------------------------------------*/
FoamFile
{
    version     2.0;
    format      ascii;
    class       volScalarField;
    location    "18.8";
    object      p;
}
// * * * * * * * * * * * * * * * * * * * * * * * * * * * * * * * * * * * * * //

dimensions      [1 -1 -2 0 0 0 0];

internalField   nonuniform List<scalar> 
15191
(
42.2257
-32.2021
-82.2818
-105.431
-113.264
-119.101
-123.285
-125.402
-126.876
-128.184
-130.179
-130.667
-132.59
-136.344
-141.277
-145.372
-145.964
-145.984
-145.971
-145.972
-145.987
-145.972
-145.383
-145.214
-145.2
-145.356
-145.93
-145.937
-146.424
-146.319
-146.361
-146.653
-146.659
-146.666
-146.675
-146.697
-146.699
-146.431
-146.377
-146.33
-146.411
-146.389
-146.375
-146.448
-146.696
-146.694
-146.68
-146.678
-146.678
-146.678
-146.442
-146.384
-146.365
-146.431
-146.506
-146.43
-146.388
-146.382
-146.443
-146.689
-146.691
-146.676
-146.674
-146.688
-146.686
-146.422
-146.371
-146.328
-146.412
-146.427
-145.949
-145.947
-145.38
-145.212
-145.2
-145.342
-145.941
-145.944
-145.956
-145.944
-146.394
-146.306
-146.347
-146.641
-146.643
-146.646
-146.651
-146.857
-146.822
-146.831
-146.867
-146.835
-146.861
-146.932
-146.934
-146.936
-146.914
-146.909
-146.92
-146.971
-146.958
-146.93
-146.981
-146.967
-146.956
-146.973
-146.955
-146.985
-146.966
-146.955
-146.96
-146.987
-147.024
-146.932
-146.83
-146.862
-146.928
-146.994
-146.983
-146.978
-146.916
-146.941
-146.952
-146.899
-146.894
-146.909
-146.931
-146.909
-146.854
-146.844
-146.843
-146.9
-146.902
-146.891
-146.86
-146.842
-146.846
-146.904
-146.885
-146.842
-146.905
-146.887
-146.864
-146.885
-146.866
-146.904
-146.881
-146.854
-146.857
-146.883
-146.911
-146.869
-146.896
-146.864
-146.898
-146.902
-146.843
-146.856
-146.907
-146.909
-146.897
-146.852
-146.892
-146.901
-146.897
-146.835
-146.835
-146.842
-146.895
-146.913
-146.884
-146.86
-146.864
-146.794
-146.862
-146.846
-146.795
-146.876
-146.856
-146.838
-146.862
-146.845
-146.89
-146.867
-146.847
-146.857
-146.905
-146.955
-146.822
-146.695
-146.74
-146.832
-146.933
-146.932
-146.935
-146.864
-146.904
-146.921
-146.876
-146.864
-146.902
-146.922
-146.92
-146.855
-146.874
-146.83
-146.829
-146.859
-146.824
-146.812
-146.798
-146.803
-146.831
-146.858
-146.834
-146.828
-146.818
-146.867
-146.834
-146.836
-146.877
-146.838
-146.798
-146.758
-146.836
-146.877
-146.812
-146.811
-146.815
-146.808
-146.788
-146.79
-146.822
-146.792
-146.795
-146.818
-146.795
-146.78
-146.792
-146.815
-146.756
-146.775
-146.785
-146.798
-146.759
-146.759
-146.817
-146.817
-146.804
-146.821
-146.791
-146.783
-146.802
-146.779
-146.786
-146.783
-146.791
-146.793
-146.805
-146.82
-146.855
-146.819
-146.62
-146.615
-146.616
-146.612
-146.615
-146.622
-146.626
-146.637
-146.643
-146.634
-146.637
-146.651
-146.653
-146.639
-146.641
-146.85
-146.812
-146.813
-146.855
-146.853
-146.841
-146.848
-146.821
-146.817
-146.84
-146.801
-146.797
-146.825
-146.861
-146.831
-146.823
-146.84
-146.872
-146.106
-144.552
-145.097
-146.004
-145.999
-146.051
-146.092
-146.132
-145.896
-146.179
-146.202
-145.397
-144.388
-143.722
-143.032
-141.94
-140.771
-140.022
-139.287
-138.18
-136.973
-135.828
-135.091
-134.375
-133.274
-132.076
-130.913
-130.154
-129.415
-128.26
-126.91
-125.526
-124.365
-123.131
-119.983
-115.388
-108.087
-97.1678
-86.437
-48.0485
16.2835
126.831
221.736
364.693
667.933
1135.81
1214.37
887.416
1226.1
1162.78
678.687
628.526
635.431
335.553
141.799
120.733
15.289
-44.1167
-72.6381
-46.9894
20.7227
8.93641
72.0261
155.891
339.753
335.324
154.649
155.922
145.265
20.4826
-48.4087
-53.0787
-89.2505
-91.2212
-91.5763
-106.591
-107.58
-115.359
-119.817
-121.967
-119.297
-115.05
-115.625
-110.924
-105.687
-105.628
-105.556
-106.3
-115.148
-120.006
-120.154
-123.478
-123.689
-123.551
-125.482
-125.547
-126.921
-128.108
-128.928
-128.142
-126.94
-126.801
-125.443
-125.465
-126.904
-127.623
-128.426
-129.655
-129.731
-129.697
-130.846
-130.96
-132.084
-133.152
-133.902
-133.161
-132.065
-131.947
-130.87
-130.867
-131.975
-132.673
-133.42
-134.596
-134.69
-134.636
-135.786
-135.88
-136.996
-138.067
-138.807
-138.085
-136.989
-136.876
-135.812
-135.805
-136.91
-137.605
-138.341
-139.522
-139.614
-139.554
-140.72
-140.817
-141.954
-143.056
-143.808
-143.087
-141.961
-141.849
-140.756
-140.749
-141.883
-142.582
-143.315
-144.498
-144.587
-144.516
-144.444
-145.454
-146.209
-146.574
-146.621
-146.334
-145.608
-145.642
-146.224
-146.249
-145.636
-145.694
-145.011
-144.338
-143.209
-142.029
-140.859
-140.139
-139.434
-138.263
-137.085
-135.931
-135.209
-134.495
-133.325
-132.14
-130.983
-130.241
-129.55
-128.346
-127.045
-125.631
-124.695
-123.46
-120.48
-115.501
-106.353
-89.5333
-73.4714
-44.5923
18.4318
139.443
333.595
638.82
1155.63
683.385
639.968
361.626
219.733
368.622
346.179
681.535
1146.89
1158.24
729.468
508.313
748.883
1181.83
1170.29
1196.82
1157.9
687.765
700.011
392.741
356.389
325.734
133.474
137.936
122.655
127.139
13.4307
-51.8734
-88.9133
-90.4342
-105.359
-112.525
-104.604
-106.546
-90.4352
-57.9986
-30.2258
17.4193
18.8514
19.3228
18.113
-51.1128
-88.273
-106.085
-115.549
-116.103
-115.574
-120.683
-123.801
-125.444
-125.622
-126.928
-127.636
-126.916
-126.907
-125.335
-123.742
-122.367
-119.687
-115.54
-115.659
-108.156
-101.906
-87.5628
-52.0632
9.68591
12.3886
130.175
229.889
135.506
24.704
-18.5146
34.5825
154.189
358.148
348.138
695.095
1172.91
1773.7
2239.87
2813.38
2714.38
1956.72
1823.51
1277.19
996.986
1395.33
1340.74
1939.39
2706.21
2713.79
1941.95
1309.91
889.892
750.674
952.686
654.935
669.478
342.38
145.415
146.989
24.8093
-33.4393
-46.4385
-51.1157
-49.726
-86.9974
-103.943
-105.04
-111.861
-116.534
-120.418
-120.186
-123.252
-123.837
-125.15
-126.161
-125.005
-125.408
-123.527
-123.673
-122.272
-120.035
-115.323
-105.443
-87.5214
-87.745
-67.5358
-73.1139
-40.4324
21.6302
21.1334
141.973
345.023
351.762
574.118
574.634
891.359
1312.1
1943.63
2715.6
2712.85
2725.01
1965.52
1945.11
1345.85
955.936
751.745
657.833
346.833
351.87
146.616
146.212
23.0322
-42.6263
-43.4921
-77.7546
-84.1936
-90.5395
-105.787
-105.25
-115.216
-120.09
-122.984
-123.387
-124.435
-125.618
-125.615
-127.098
-126.855
-126.872
-127.119
-128.38
-128.249
-128.475
-128.405
-129.658
-130.863
-130.997
-132.038
-132.76
-132.04
-132.214
-131.04
-130.265
-129.517
-129.551
-129.549
-129.642
-130.894
-132.114
-133.376
-133.516
-133.488
-134.655
-135.835
-135.957
-136.995
-137.703
-137
-137.153
-135.997
-135.27
-134.552
-133.425
-133.502
-132.356
-131.627
-130.838
-129.734
-129.831
-128.595
-127.776
-128.33
-129.075
-128.328
-128.362
-127.148
-127.098
-125.647
-124.526
-123.053
-120.069
-115.465
-116.145
-106.853
-97.4377
-96.8713
-75.8494
-75.5982
-42.4403
23.3601
21.5818
142.881
146.871
345.085
673.693
1001.6
1402.09
1285.01
1181.64
1785.6
1821.97
1169.2
695.288
701.161
351.901
149.364
26.1088
22.2431
-40.0928
-43.1981
-77.5947
-97.3294
-96.828
-107.81
-107.84
-116.325
-120.367
-120.238
-122.983
-124.58
-125.344
-125.898
-127.135
-128.496
-128.444
-129.706
-129.541
-129.73
-129.918
-131.083
-131.063
-132.235
-132.347
-133.38
-134.058
-133.335
-133.481
-132.296
-132.349
-131.191
-130.331
-130.995
-131.631
-130.776
-130.886
-129.764
-129.779
-128.573
-127.23
-126.017
-124.563
-122.967
-122.986
-120.369
-116.346
-116.151
-106.838
-105.66
-90.3533
-72.7852
-83.9208
-81.1874
-78.9741
-79.1405
-81.353
-86.9564
-105.311
-115.287
-119.9
-123.221
-125.041
-125.387
-127.018
-128.436
-129.739
-130.935
-132.051
-132.763
-131.848
-132.19
-132.408
-133.593
-133.559
-134.732
-134.559
-134.706
-134.829
-134.702
-135.91
-136.016
-137.049
-137.738
-137.027
-137.194
-135.994
-136.116
-135.345
-135.976
-136.593
-135.806
-135.961
-134.809
-134.891
-133.685
-133.779
-132.814
-131.866
-130.872
-130.897
-129.795
-128.59
-127.249
-126.032
-124.561
-124.577
-122.976
-120.228
-120.048
-115.413
-115.127
-105.037
-87.4049
-66.9783
-32.5261
-45.4185
-50.0856
-16.6465
35.936
156.829
362.776
398.931
709.366
1183.65
1826.05
1848.01
1196.27
759.319
516.525
362.281
234.325
138.36
26.304
14
133.114
136.977
331.694
352.376
691.738
1162.4
1172.69
694.683
376.172
224.649
126.008
141.311
19.6721
11.5933
-51.2357
-48.8585
-86.5542
-87.0734
-105.122
-115.213
-120.01
-120.048
-122.992
-123.04
-124.56
-125.386
-125.9
-127.174
-128.547
-129.828
-130.96
-131.924
-131.889
-132.843
-133.813
-134.993
-134.956
-136.066
-136.025
-137.104
-136.998
-137.202
-137.362
-137.265
-138.465
-138.282
-138.397
-138.494
-138.338
-138.457
-138.428
-139.588
-140.773
-140.892
-141.937
-142.631
-141.945
-142.076
-140.924
-140.207
-139.506
-139.503
-139.455
-139.461
-140.697
-141.891
-143.072
-143.346
-143.328
-144.414
-145.413
-145.589
-146.301
-146.475
-146.358
-146.309
-146.397
-146.512
-146.434
-146.294
-146.122
-146.286
-146.265
-146.15
-146.054
-146.153
-146.255
-146.068
-146.279
-146.399
-146.281
-146.219
-146.485
-146.284
-146.061
-146.291
-146.215
-146.218
-146.432
-146.464
-145.39
-145.215
-145.24
-145.354
-144.348
-143.654
-142.973
-141.894
-140.729
-139.973
-139.248
-138.171
-137.027
-136.291
-135.557
-134.469
-133.315
-132.155
-131.401
-130.662
-129.54
-128.25
-126.963
-126.1
-125.106
-123.307
-120.052
-115.699
-111.851
-104.568
-88.1471
-50.9718
7.85164
61.8228
153.524
342.563
650.371
1119.73
665.507
365.993
362.255
349.374
140.269
19.4941
5.7822
-51.8486
-85.4665
-84.735
-87.8964
-105.722
-115.097
-115.819
-120.097
-122.965
-122.952
-123.241
-125.285
-126.749
-127.011
-128.224
-129.414
-129.356
-129.476
-130.743
-131.998
-132.17
-133.289
-134.355
-134.342
-134.411
-135.674
-136.88
-137.066
-138.179
-139.262
-139.207
-139.288
-140.558
-140.755
-141.921
-143.002
-142.916
-142.925
-144.107
-144
-145.139
-146.037
-146.105
-145.865
-146.091
-146.094
-145.317
-144.317
-144.28
-143.604
-142.909
-141.834
-140.711
-139.949
-139.207
-138.126
-137.018
-136.264
-135.514
-134.444
-133.315
-132.139
-131.372
-130.629
-129.534
-128.288
-127.441
-126.665
-125.346
-123.507
-120.299
-117.523
-114
-106.544
-91.0846
-56.5016
-18.8148
25.8033
139.948
326.033
636.36
1186.42
677.018
353.024
141.55
21.9951
-50.699
-88.4763
-87.2565
-105.814
-115.099
-119.604
-119.818
-123.212
-125.26
-126.803
-128.071
-128.206
-129.528
-130.789
-132.005
-133.138
-133.225
-134.473
-135.709
-136.91
-138.045
-138.107
-139.339
-140.596
-141.809
-142.964
-142.977
-144.236
-144.071
-144.423
-145.038
-145.978
-146.091
-145.834
-146.091
-146.36
-146.36
-146.11
-146.191
-145.727
-145.175
-144.265
-144.144
-143.065
-142.346
-141.646
-140.566
-139.439
-138.665
-137.945
-136.888
-135.783
-135.018
-134.303
-133.244
-132.14
-131.368
-130.607
-129.504
-128.288
-127.431
-126.551
-125.238
-123.509
-120.566
-118.723
-114.787
-106.663
-92.1618
-75.5289
-43.4191
18.6508
132.465
320.15
961.72
263.059
-7.37242
-94.8541
-116.96
-125.903
-127.537
-130.223
-132.724
-135.085
-137.506
-139.793
-142.19
-144.509
-146.384
-146.332
-146.39
-146.332
-146.373
-146.323
-146.368
-146.62
-146.82
-146.853
-146.607
-146.609
-146.054
-144.432
-146.033
-146.615
-146.61
-146.593
-146.335
-146.302
-137.298
-136.649
-135.661
-134.965
-134.302
-133.307
-132.606
-131.928
-130.919
-130.218
-129.486
-128.305
-127.521
-126.61
-125.317
-123.508
-121.824
-118.846
-114.592
-106.847
-100.314
-85.2468
-49.7777
8.59534
962.977
263.503
-8.54859
-95.3562
-117.855
-124.43
-127.617
-130.303
-132.754
-133.387
-134.533
-135.816
-136.982
-138.262
-139.46
-140.698
-141.862
-143.077
-143.332
-142.657
-141.965
-140.852
-139.655
-139.766
-139.048
-139.759
-140.755
-140.894
-142.064
-143.222
-143.348
-144.275
-144.385
-144.29
-143.229
-144.306
-144.897
-145.482
-146.245
-146.239
-146.594
-146.605
-146.455
-146.444
-146.235
-146.046
-146.238
-146.265
-146.263
-145.329
-145.297
-145.448
-145.579
-145.205
-145.605
-145.605
-145.593
-145.978
-145.991
-145.387
-145.153
-143.976
-144.188
-144.294
-144.238
-144.138
-145.296
-145.096
-144.486
-146.026
-145.958
-145.943
-145.943
-144.444
-145.004
-145.944
-145.96
-146.005
-146.077
-145.838
-146.056
-146.068
-145.291
-144.673
-144.051
-143.066
-142.918
-141.753
-140.589
-139.856
-139.173
-138.136
-137.399
-136.7
-135.653
-134.558
-133.789
-133.057
-132.018
-130.903
-130.143
-129.388
-128.243
-126.958
-126.007
-125.086
-123.509
-120.593
-118.708
-115.091
-106.952
-92.0655
-70.261
-41.2198
27.8068
134.643
301.954
657.241
342.644
143.023
23.6184
-49.1871
-88.5577
-93.7471
-106.699
-114.82
-114.375
-114.792
-120.151
-120.6
-123.544
-125.28
-126.541
-126.623
-126.765
-128.145
-128.238
-129.488
-130.596
-130.591
-130.71
-131.977
-132.119
-133.283
-134.43
-135.513
-135.759
-136.898
-138.09
-139.194
-139.42
-140.58
-141.794
-142.884
-142.789
-142.827
-143.981
-145.082
-145.134
-145.296
-146.127
-146.204
-146.108
-145.829
-146.088
-146.078
-146.094
-146.377
-146.364
-146.018
-145.937
-144.984
-145.063
-145.104
-145.076
-145.083
-145.165
-144.125
-143.02
-142.308
-141.625
-140.58
-140.423
-139.249
-138.104
-137.382
-136.71
-135.705
-135.003
-134.327
-133.309
-132.534
-131.854
-130.786
-129.683
-128.873
-128.045
-126.821
-125.483
-124.538
-123.126
-119.903
-115.597
-112.244
-105.826
-90.2052
-52.3594
-18.9981
34.3215
137.889
315.849
344.325
147.615
28.1146
-44.9885
-52.3825
-89.936
-106.869
-114.705
-115.514
-120.037
-123.277
-125.034
-125.424
-126.808
-128.186
-129.374
-129.655
-130.776
-131.985
-133.052
-133.294
-134.447
-135.617
-135.708
-136.833
-137.986
-139.138
-139.11
-139.127
-140.339
-141.508
-141.593
-141.696
-140.533
-139.8
-139.118
-138.094
-137.937
-136.792
-135.675
-135.557
-134.43
-133.312
-133.169
-132.037
-130.913
-130.771
-129.594
-128.348
-128.042
-126.799
-125.308
-123.451
-123.153
-119.6
-114.713
-106.786
-105.112
-88.8775
-48.7671
10.7783
33.5364
143.638
329.42
338.427
151.778
36.8829
24.2621
-45.3158
-88.6664
-105.448
-105.41
-114.512
-119.638
-123.314
-123.033
-125.2
-126.727
-128.059
-128.177
-129.515
-130.685
-131.853
-131.88
-131.953
-133.124
-134.295
-134.296
-134.353
-135.514
-136.666
-136.677
-136.708
-137.883
-139.057
-139.083
-139.19
-138.045
-137.881
-139.08
-140.308
-140.385
-142.234
-141.562
-140.525
-141.505
-141.462
-141.479
-142.727
-142.954
-144.06
-145.107
-145.182
-146.037
-111.041
-105.198
-90.2941
-69.991
-39.8869
22.0935
121.455
957.184
265.864
-12.3555
-95.6719
-118.353
-124.409
-127.499
-130.217
-132.623
-135.034
-137.412
-139.784
-142.171
-142.227
-143.977
-143.942
-144.044
-145.155
-144.122
-144.218
-144.258
-144.393
-143.345
-143.06
-143.003
-143.043
-142.951
-142.83
-142.894
-142.085
-142.736
-143.864
-143.955
-145.109
-145.176
-145.298
-146.091
-146.496
-146.482
-146.324
-146.328
-146.087
-146.091
-144.058
-142.86
-142.795
-142.081
-143.866
-144.998
-143.889
-143.949
-143.91
-145.078
-145.262
-144.628
-144.007
-143.017
-142.862
-143.975
-143.891
-143.889
-145.039
-145.246
-146.031
-146.014
-146.438
-146.432
-146.267
-146.031
-145.784
-146.018
-146.02
-146.023
-146.27
-146.017
-146.025
-145.726
-146.003
-145.979
-146.293
-146.302
1221.39
699.094
373.347
157.3
34.8978
-42.4887
-85.0955
-103.259
-116.565
-118.927
-122.969
-125.184
-126.603
-128.01
-130.052
-130.659
-132.494
-136.266
-141.219
-141.227
-144.665
-146.398
-146.323
-146.404
-146.358
-144.461
-144.412
-144.434
-144.387
-144.436
-144.346
-144.374
-144.416
1226
702.675
366.098
147.026
34.1283
-40.3283
-85.3008
-105.745
-115.7
-118.919
-123.063
-125.13
-127.228
-127.929
-129.957
-132.542
-136.196
-136.327
-139.78
-142.119
-141.994
-134.383
-133.243
-132.165
-132.051
-130.935
-130.808
-129.656
-128.372
-128.344
-127.037
-125.543
-125.306
-123.305
-119.275
-115.382
-114.598
-106.565
-89.9425
-85.2816
-47.7097
18.8362
124.951
141.359
23.3789
-46.3164
-85.7729
-87.5283
-106.071
-114.226
-118.781
-118.631
-119.179
-122.957
-125.176
-126.622
-126.693
-126.761
-128.17
-129.471
-129.529
-129.535
-130.75
-131.885
-131.927
-131.954
-133.156
-133.201
-134.269
-134.264
-134.291
-135.492
-135.534
-136.593
1212.43
708.051
365.656
159.394
33.9528
-37.9739
-84.5421
-102.473
-101.436
-103.051
-96.0496
-117.484
-124.49
-127.519
-130.169
-132.535
-136.26
-137.386
-139.67
-142.106
-142.05
-142.062
-142.002
-142.651
-143.795
-145.042
-145.984
-146.004
-146.003
-145.932
-146.342
-144.422
-145.946
39.0473
-34.1692
-82.9243
-105.383
-113.426
-119.427
-123.322
-125.39
-126.857
-128.165
-128.073
-127.909
-129.269
-130.704
-130.601
-130.58
-132.522
-132.482
-132.439
-132.395
-136.274
-140.997
-141.167
-86.2138
-44.6772
18.4062
24.2166
141.869
148.217
28.5
-40.5471
-42.7086
-43.8901
-86.5914
-104.94
-105.195
-145.002
-139.068
-140.305
-139.688
-140.337
-141.538
-142.74
-142.719
-142.665
-143.875
-145.063
-141.464
-141.546
-141.448
-142.657
-143.828
-145.029
-145.995
-146.078
-145.814
-146.078
-146.342
-146.327
-146.072
-146.093
-146.058
-146.466
-146.461
-146.303
-146.305
-146.066
-146.08
-146.056
-145.972
-146.027
-142.703
-142.767
-142.788
-143.934
-144.034
-143.939
-143.911
-143.852
-143.823
-142.77
-141.554
-141.599
-141.545
-141.452
-140.299
-140.343
-140.381
-140.33
-139.617
-139.04
-139.13
-139.164
-139.088
-139.168
-140.4
-141.593
-141.578
-141.64
-140.52
-139.308
-138.14
-137.922
-136.841
-135.658
-134.533
-134.285
-133.19
-132.018
-130.859
-130.614
-129.499
-128.191
-126.904
-126.546
-125.219
-123.52
-120.626
-120.156
-123.482
-125.285
-126.633
-126.79
-128.114
-129.436
-130.58
-130.717
-131.96
-133.139
-134.274
-134.384
-135.597
-136.782
-137.904
-137.986
-139.211
-140.413
-137.963
-137.934
-137.951
-137.926
-139.109
-137.249
-137.89
38.9884
-33.7793
-82.5886
-105.099
-113.165
-119.182
-123.072
-125.145
-126.603
-127.634
-130.177
-132.536
-131.414
-132.645
-134.886
-137.304
-139.586
-146.359
-146.334
-146.385
-146.656
-146.852
-146.833
-146.856
-146.823
-146.796
-146.808
-146.852
-146.639
-146.637
-146.344
-146.304
-146.394
-145.946
-145.359
-146.227
-146.233
-146.127
-145.771
-145.358
-144.893
-145.476
-144.355
-143.456
-142.811
-145.281
-145.933
-146.185
-146.165
-146.182
-146.427
-146.439
-146.224
-146.052
-145.217
-145.175
-145.206
-145.296
-145.335
-145.375
-145.394
-145.388
-145.336
-145.256
-145.211
-145.132
-145.265
-145.332
-145.227
-145.381
-145.429
-145.366
-145.482
-145.479
-145.323
-145.351
-145.454
-145.452
-145.461
-145.457
-145.444
-145.441
-145.338
-145.309
-145.467
-145.475
-145.371
-145.468
-145.465
-145.348
-145.42
-145.299
-145.136
-145.203
-145.252
-145.343
-145.408
-145.431
-145.425
-145.404
-145.382
-145.314
-145.474
-145.033
-144.521
-143.646
-143.019
-142.4
-141.419
-140.725
-140.055
-139.027
-138.297
-137.593
-136.531
-135.772
-135.038
-133.93
-133.114
-132.357
-131.187
-129.974
-129.104
-128.197
-126.893
-125.461
-124.451
-122.952
-119.589
-115.091
-111.415
-104.907
-88.7548
-50.1394
-16.2548
38.3247
144.459
325.844
619.838
650.184
339.728
150.973
37.9783
15.1521
-46.2763
-87.3979
-104.328
-105.996
-114.193
-119.276
-122.968
-123.301
-125.26
-126.86
-128.196
-128.532
-129.865
-131.165
-132.372
-132.549
-133.781
-135.017
-135.151
-136.369
-137.561
-137.67
-138.864
-140.021
-140.106
-141.279
-142.345
-142.379
-143.494
-144.45
-144.493
-144.496
-144.472
-144.48
-144.504
-144.479
-144.4
-144.34
-144.325
-144.292
-144.216
-144.827
-144.273
-144.39
-144.301
-144.897
-144.315
-144.41
-144.309
-144.9
-144.311
-144.388
-144.485
-144.488
-144.502
-144.508
-144.511
-144.511
-144.501
-144.501
-144.401
-144.323
-144.909
-144.315
-144.408
-144.302
-144.865
-144.272
-144.35
-144.242
-144.793
-144.198
-144.286
-144.328
-144.338
-144.385
-144.447
-144.454
-144.41
-144.378
-144.382
-144.357
-144.293
-143.309
-143.295
-143.352
-143.404
-143.182
-142.671
-142.558
-142.034
-141.481
-142.223
-142.188
-142.132
-142.178
-141.201
-97.2482
-105.575
-113.817
-119.801
-123.428
-125.406
-126.782
-128.174
-129.457
-130.79
-132.614
-136.404
-141.307
-141.045
-141.033
-140.997
-136.217
-145.979
-146.025
-142.069
-142.041
-143.193
-144.219
-144.224
-144.656
-144.153
-144.215
-144.197
-145.195
-145.996
-146.453
-146
-146.123
-146.172
-146.163
-146.172
-146.117
-145.97
-145.892
-146.093
-146.181
-146.016
-145.935
-146.056
-146.197
-146.185
-146.196
-146.242
-146.304
-146.287
-146.193
-146.182
-146.228
-146.225
-146.173
-146.179
-146.274
-146.292
-146.23
-146.188
-146.185
-146.221
-146.176
-146.166
-146.185
-146.191
-146.062
-145.878
-145.962
-146.116
-146.183
-146.185
-146.204
-146.169
-146.06
-146.192
-145.863
-146.303
-146.302
-146.3
-146.319
-145.673
-145.164
-144.64
-143.754
-143.115
-142.485
-141.491
-140.796
-140.128
-139.075
-138.317
-137.587
-136.477
-135.302
-134.461
-133.682
-132.535
-131.317
-130.467
-129.668
-128.419
-127.047
-126.034
-125.051
-123.379
-120.322
-118.398
-114.593
-106.261
-90.9532
-68.4956
-38.7917
31.6854
140.725
311.285
331.064
141.843
30.2507
-39.177
-50.2742
-88.6309
-106.059
-114.142
-115.068
-119.745
-123.132
-124.987
-125.406
-126.887
-128.347
-129.637
-129.951
-131.167
-132.491
-133.662
-133.921
-135.168
-136.437
-137.59
-137.723
-138.923
-140.095
-140.189
-141.341
-142.457
-142.534
-143.61
-144.605
-144.655
-145.552
-145.598
-145.397
-146.024
-146.28
-146.266
-146.488
-146.857
-146.885
-146.86
-146.864
-146.867
-146.91
-146.876
-146.89
-146.942
-146.929
-146.904
-146.874
-146.933
-146.948
-146.882
-146.895
-146.914
-146.911
-146.881
-146.874
-146.917
-146.899
-146.886
-146.923
-146.907
-146.882
-146.881
-146.918
-146.88
-146.878
-146.875
-146.905
-146.876
-146.84
-146.82
-146.816
-146.826
-146.826
-146.86
-146.863
-146.826
-146.832
-146.869
-146.88
-146.846
-146.144
-144.809
-146.16
-146.118
-144.687
-146.1
-146.086
-144.637
-146.081
-146.071
-146.856
-146.818
-146.808
-146.068
-146.065
-146.045
-146.02
-146.047
-146.23
-145.761
-145.189
-144.325
-143.243
-142.144
-141.397
-140.686
-139.618
-139.668
-138.502
-138.561
-137.792
-138.363
-138.898
-138.036
-138.075
-137.131
-137.167
-136.111
-136.141
-135.007
-133.788
-132.85
-132.306
-132.568
-131.768
-130.893
-129.811
-128.535
-127.164
-125.686
-125.697
-124.482
-123.421
-123.713
-122.263
-120.066
-120.38
-116.466
-111.746
-103.762
-104.725
-107.997
-101.587
-87.1218
-86.1023
-89.7668
-56.6999
-28.8553
-56.5784
-47.8915
-88.1951
-85.7881
-103.744
-104.555
-115.27
-115.484
-119.501
-119.788
-123.048
-123.124
-123.251
-125.062
-125.054
-125.05
-125.465
-127.074
-128.483
-129.727
-130.933
-132.052
-132.303
-133.576
-134.846
-136.025
-137.153
-138.232
-138.977
-139.874
-139.778
-139.693
-140.84
-140.789
-141.723
-141.988
-142.535
-143.336
-144.376
-145.297
-146.004
-146.13
-146.464
-146.56
-146.536
-146.14
-145.355
-144.397
-143.421
-142.687
-141.9
-142
-140.927
-140.986
-142.023
-142.937
-142.911
-143.225
-143.705
-144.455
-145.412
-146.198
-146.201
-145.449
-144.524
-143.755
-143.776
-142.97
-142.055
-141.023
-139.917
-139.014
-138.121
-138.14
-137.23
-137.189
-136.163
-134.999
-133.765
-133.798
-132.562
-131.382
-130.498
-129.685
-128.49
-127.249
-127.215
-125.692
-125.482
-123.548
-123.258
-120.119
-115.495
-115.387
-106.205
-104.152
-88.0262
-50.0008
14.772
130.664
143.888
341.14
650.816
911.373
1251.56
1244.38
1182.59
1237.89
1192.54
702.368
651.091
369
370.761
361.526
145.057
21.1087
20.7251
17.6982
19.7011
-44.2146
-46.3732
-86.019
-86.26
-105.141
-114.836
-115.221
-120.142
-119.876
-120.165
-123.344
-123.338
-123.441
-123.361
-123.449
-125.51
-126.989
-128.399
-129.69
-130.89
-131.016
-132.262
-133.501
-134.747
-135.942
-137.068
-137.164
-138.404
-139.551
-140.757
-141.863
-141.805
-141.914
-143.074
-144.19
-145.195
-146.003
-146.083
-145.895
-146.132
-146.369
-146.165
-146.146
-146.366
-146.175
-145.933
-146.189
-146.423
-146.42
-146.182
-146.173
-146.142
-145.296
-145.264
-145.231
-145.167
-145.166
-145.194
-145.24
-145.44
-144.848
-144.241
-144.158
-144.161
-144.188
-145.269
-145.474
-146.191
-146.546
-146.554
-146.184
-145.363
-146.211
-146.168
-145.911
-146.175
-146.172
-146.143
-146.42
-146.424
-146.123
-144.622
-146.12
-146.079
-146.104
-146.051
-146.082
-146.102
-146.206
-146.183
-145.969
-146.214
-146.225
-146.451
-146.437
-145.278
-145.196
-145.195
-145.256
-146.128
-146.179
-146.182
-145.962
-146.184
-146.176
-146.398
-146.403
-144.126
-144.164
-144.037
-144.003
-142.888
-142.888
-142.935
-143.043
-141.822
-141.851
-141.796
-141.767
-141.663
-141.725
-141.783
-141.665
-141.735
-141.871
-140.712
-140.516
-140.44
-141.636
-141.673
-140.476
-139.227
-139.257
-137.367
-139.158
-140.354
-141.54
-141.471
-141.571
-142.841
-140.385
-139.689
-140.335
-139.098
-139.173
-139.226
-140.489
-140.421
-141.614
-141.549
-140.402
-139.744
-140.464
-140.522
-139.33
-137.429
-139.208
-139.166
-139.264
-139.318
-140.56
-140.615
-139.404
-139.393
-140.623
-140.522
-141.763
-141.679
-140.52
-139.969
-140.619
-139.396
-139.257
-139.273
-138.104
-138.147
-138.166
-136.919
-136.853
-136.878
-135.695
-135.01
-135.634
-136.775
-138.03
-138.026
-139.253
-139.136
-138.019
-138
-138.002
-137.933
-137.268
-137.922
-137.928
-136.737
-134.993
-135.56
-136.715
-136.7
-136.644
-136.682
-136.579
-136.38
125.323
-107.235
-126.457
-131.853
-135.453
-137.798
-140.046
-142.345
-144.496
-146.357
-146.37
-146.652
-146.646
-146.642
-146.638
-146.349
-146.314
-146.32
-144.521
-141.378
-144.682
-144.671
-146.424
-146.402
-145.963
-145.977
-145.966
-145.964
-145.368
-145.933
-145.93
-146.416
-146.304
-146.34
-146.633
-146.634
-146.843
-146.845
-146.805
-146.788
-146.798
-146.804
-146.802
-146.842
-146.842
-146.633
-146.634
-146.342
-146.306
-146.418
-146.399
-145.954
-145.972
-146.417
-146.499
-146.418
-146.341
-146.349
-146.368
-146.34
-146.307
-146.348
-146.639
-146.635
-146.843
-146.843
-146.803
-146.802
-146.787
-146.808
-146.839
-146.814
-146.803
-146.809
-146.837
-146.807
-146.798
-146.806
-146.801
-146.849
-146.853
-146.642
-146.641
-146.389
-146.652
-146.846
-146.856
-146.813
-146.817
-146.818
-146.783
-146.785
-146.025
-146.029
-146.039
-146.033
-146.04
-146.03
-146.021
-145.169
-144.587
-145.151
-145.211
-145.876
-146.128
-146.144
-146.113
-146.35
-146.518
-146.547
-146.347
-146.072
-146.152
-145.903
-146.157
-146.144
-146.162
-146.399
-146.398
-146.104
-145.243
-145.229
-145.156
-144.572
-145.156
-144.053
-144.058
-144.067
-144.094
-143.021
-143.065
-143.145
-142.365
-141.976
-141.88
-141.994
-143.12
-143.093
-143.085
-144.171
-144.157
-144.161
-143.033
-143.051
-142.926
-143.657
-142.849
-142.845
-142.841
-142.834
-143.162
-143.379
-143.309
-143.233
-143.224
-143.352
-143.353
-143.256
-143.39
-143.381
-143.275
-143.399
-143.384
-143.196
-143.2
-143.206
-143.207
-143.205
-143.195
-143.187
-143.179
-143.366
-143.382
-143.261
-143.373
-143.389
-143.261
-143.361
-143.36
-143.228
-143.231
-143.309
-143.383
-143.179
-142.865
-142.89
-142.914
-142.934
-143.282
-142.792
-142.7
-142.195
-141.652
-141.065
-140.098
-139.43
-138.82
-138.196
-137.526
-136.477
-135.739
-135.019
-133.94
-133.17
-132.43
-131.326
-130.554
-129.735
-128.478
-127.631
-126.653
-125.259
-123.341
-121.568
-118.501
-114.066
-106.057
-99.2271
-83.7165
-47.2655
12.8569
73.2644
165.837
344.463
646.333
1085.25
1137.6
660.571
350.226
161.942
133.135
23.2498
-45.2418
-83.7437
-88.63
-105.789
-114.069
-118.273
-118.977
-123.114
-125.258
-126.758
-127.096
-128.506
-129.794
-129.94
-131.186
-132.423
-132.563
-133.827
-134.985
-135.104
-136.339
-137.458
-137.577
-138.658
-138.78
-139.91
-140.945
-140.986
-141.908
-142.012
-142.051
-142.009
-141.985
-141.976
-141.883
-142.661
-142.523
-141.985
-141.727
-140.811
-140.854
-140.917
-140.965
-140.989
-140.989
-140.979
-139.842
-139.9
-138.745
-138.743
-138.5
-137.971
-137.426
-136.856
-136.271
-135.661
-135.046
-134.416
-133.732
-132.675
-131.917
-131.221
-130.47
-129.792
-128.661
-127.849
-127.028
-125.488
-124.511
-122.909
-119.177
-114.466
-110.441
-104.326
-88.9677
-68.2712
-37.1009
26.4499
128.664
231.789
373.076
673.074
1133.38
1144.6
672.18
368.455
339.042
147.759
27.952
-39.6082
-42.7141
-84.8456
-104.259
-105.076
-113.909
-119.294
-122.931
-123.279
-125.244
-126.871
-126.955
-128.338
-129.727
-129.919
-131.1
-131.344
-132.538
-133.656
-133.785
-134.86
-135.001
-136.063
-136.173
-137.185
-137.238
-138.137
-138.991
-139.864
-139.9
-139.88
-139.799
-139.734
-139.738
-139.702
-140.729
-141.421
-142.157
-142.101
-142.02
-142.7
-142.052
-142.159
-142.044
-142.713
-142.05
-142.152
-142.027
-142.693
-142.014
-142.139
-142.159
-142.174
-142.179
-142.183
-142.181
-142.174
-142.155
-142.035
-142.714
-142.047
-142.171
-142.068
-142.726
-142.056
-142.169
-142.062
-142.704
-142.027
-142.107
-142.163
-141.991
-142.525
-142.65
-141.861
-141.72
-140.792
-140.722
-140.817
-140.971
-140.958
-141.076
-141.064
-140.94
-141.071
-141.061
-140.975
-140.999
-140.988
-141.096
-141.073
-141.069
-141.067
-141.065
-141.085
-140.973
-140.981
-140.954
-141.039
-141.051
-140.923
-141.047
-141.062
-140.948
-140.963
-140.816
-139.856
-139.884
-139.797
-139.675
-140.357
-139.684
-139.79
-139.664
-140.347
-139.678
-139.788
-139.897
-139.861
-139.631
-140.347
-139.624
-139.63
-140.338
-139.63
-139.627
-140.353
-139.635
-139.873
-139.913
-139.802
-139.692
-140.368
-139.674
-139.8
-139.692
-140.372
-139.677
-139.797
-139.884
-139.851
-139.681
-139.7
-139.68
-140.824
-140.866
-141.941
-141.927
-141.93
-141.95
-141.885
-141.755
-140.834
-140.847
-140.882
-140.903
-140.9
-139.796
-139.733
-138.855
-138.9
-138.906
-139.806
-139.749
-139.713
-139.749
-139.744
-140.783
-140.889
-139.928
-139.265
-139.981
-141.059
-141.07
-139.927
-138.808
-138.673
-138.063
-137.42
-136.401
-135.692
-136.43
-135.014
-133.975
-133.235
-134.918
-136.174
-139.794
-140.976
-139.634
-140.824
-140.902
-140.84
-140.793
-139.687
-139.681
-139.763
-138.585
-138.618
-137.403
-137.327
-137.34
-137.449
-137.45
-137.488
-137.292
-136.726
-136.143
-135.549
-136.328
-136.267
-136.25
-135.047
-135.118
-134.953
-134.337
-133.687
-132.651
-131.948
-132.7
-133.855
-133.836
-134.962
-134.954
-134.946
-136.204
-136.201
-136.243
-135.013
-134.967
-135.474
-137.406
-137.365
-138.523
-138.514
-138.636
-138.605
-138.611