/*--------------------------------*- C++ -*----------------------------------*\
  =========                 |
  \\      /  F ield         | OpenFOAM: The Open Source CFD Toolbox
   \\    /   O peration     | Website:  https://openfoam.org
    \\  /    A nd           | Version:  7
     \\/     M anipulation  |
\*---------------------------------------------------------------------------*/
FoamFile
{
    version     2.0;
    format      ascii;
    class       volScalarField;
    location    "18.8";
    object      p_rgh;
}
// * * * * * * * * * * * * * * * * * * * * * * * * * * * * * * * * * * * * * //

dimensions      [1 -1 -2 0 0 0 0];

internalField   nonuniform List<scalar> 
15191
(
7334.62
6365.14
3648.05
1101.91
506.478
492.825
245.759
35.0976
14.5091
11.0885
10.4095
2.22102
0.685782
-0.552886
-0.606834
-0.21799
-0.169309
-0.169367
-0.164014
-0.165447
-0.171478
-0.175547
-0.227052
-0.210897
-0.196326
-0.201256
-0.15403
-0.161194
-0.116994
-0.147951
-0.167668
-0.140915
-0.147216
-0.153505
-0.16212
-0.169236
-0.165463
-0.195129
-0.183304
-0.160426
-0.127155
-0.14385
-0.175035
-0.183327
-0.16228
-0.161478
-0.151721
-0.15054
-0.160455
-0.159794
-0.181251
-0.168503
-0.146465
-0.125259
-0.110681
-0.124733
-0.142896
-0.166656
-0.177625
-0.154205
-0.154951
-0.147554
-0.147084
-0.153862
-0.157564
-0.18564
-0.170722
-0.157181
-0.127965
-0.119359
-0.170663
-0.168035
-0.22371
-0.205399
-0.194799
-0.185787
-0.134136
-0.137514
-0.141343
-0.149171
-0.109924
-0.135604
-0.152554
-0.126886
-0.128913
-0.131726
-0.136909
-0.104907
-0.131981
-0.156887
-0.172175
-0.193354
-0.21408
-0.184859
-0.173503
-0.183431
-0.205299
-0.223712
-0.22781
-0.199804
-0.210351
-0.233264
-0.204072
-0.214162
-0.234028
-0.223977
-0.227228
-0.209123
-0.222861
-0.243193
-0.237904
-0.203252
-0.187668
-0.276065
-0.333692
-0.3176
-0.273924
-0.202485
-0.17914
-0.179761
-0.207885
-0.190559
-0.17816
-0.20091
-0.195352
-0.176565
-0.155665
-0.166508
-0.189753
-0.189551
-0.185355
-0.156605
-0.139684
-0.140879
-0.150054
-0.156403
-0.153604
-0.132202
-0.13748
-0.146095
-0.128435
-0.134393
-0.141941
-0.135942
-0.137777
-0.12956
-0.141254
-0.15573
-0.157171
-0.146026
-0.136239
-0.148389
-0.146987
-0.158104
-0.148621
-0.144569
-0.168781
-0.161953
-0.138317
-0.133554
-0.149976
-0.168297
-0.153883
-0.142514
-0.153945
-0.179809
-0.18105
-0.177516
-0.152249
-0.137125
-0.151613
-0.161308
-0.165636
-0.0993839
-0.0938637
-0.10046
-0.10603
-0.100813
-0.107342
-0.116115
-0.115454
-0.116827
-0.114351
-0.123561
-0.134816
-0.13425
-0.120302
-0.117585
-0.164395
-0.195976
-0.192043
-0.174843
-0.139186
-0.127517
-0.134381
-0.156432
-0.151911
-0.149493
-0.17218
-0.174336
-0.163523
-0.154231
-0.170534
-0.20496
-0.210645
-0.183203
-0.185815
-0.162299
-0.147689
-0.145495
-0.147735
-0.150927
-0.153112
-0.137386
-0.121205
-0.12864
-0.142602
-0.122443
-0.110508
-0.11316
-0.12162
-0.148331
-0.165338
-0.170192
-0.144827
-0.113543
-0.100921
-0.108505
-0.121757
-0.122051
-0.110099
-0.0981412
-0.102429
-0.108865
-0.0949168
-0.102982
-0.103231
-0.0930807
-0.0825408
-0.0867414
-0.0954179
-0.0828668
-0.0750414
-0.0808138
-0.0865094
-0.0729801
-0.0595765
-0.063711
-0.0724755
-0.0638546
-0.0742724
-0.0854308
-0.0742818
-0.0877299
-0.0801239
-0.0892505
-0.101791
-0.0923076
-0.0803302
-0.0721237
-0.0622426
-0.0690903
-0.087808
-0.0863091
-0.0883613
-0.0946959
-0.0969774
-0.09431
-0.0966375
-0.102348
-0.106393
-0.105856
-0.109612
-0.117081
-0.124562
-0.12533
-0.126412
-0.0969474
-0.125119
-0.125561
-0.0965937
-0.0976615
-0.104252
-0.0881067
-0.0966425
-0.103492
-0.10931
-0.0970831
-0.0870126
-0.0752932
-0.0679025
-0.0787874
-0.0878983
-0.0835022
-0.0757305
-0.190878
-0.425394
-0.346153
-0.213868
-0.224691
-0.224554
-0.229072
-0.241853
-0.280542
-0.243935
-0.250263
-0.383031
-0.529026
-0.621057
-0.717379
-0.817563
-0.905255
-0.956201
-1.00155
-1.02273
-0.973069
-0.83155
-0.76598
-0.389954
0.678806
2.56955
5.78277
6.66956
12.0521
20.2269
36.815
71.7803
125.078
182.654
335.966
492.268
1311.05
1633.94
3589.17
5428.13
8453.95
15606.7
18746.6
25746
39089.5
57311
59396.2
47466
58209.9
57894.6
39414.2
40196.8
39732.1
24981.3
15374.7
15502.9
8139.09
6166.74
3785.05
6069.62
9857.74
9758.31
12114.2
17956.3
25529.3
24435.4
17708.9
15497.6
14745.5
9820.24
5227.57
5027.71
2326.73
2515.07
2485.94
831.242
1394.98
686.262
381.142
277.687
433.779
683.359
633.078
802.817
858.639
802.834
906.437
1059.77
486.071
290.406
406.459
215.561
170.666
174.579
70.0805
66.1911
35.0922
16.7509
14.0553
21.8576
38.5877
40.1065
80.6558
101.311
44.0535
23.0059
20.8998
8.06871
9.44245
8.06003
3.71844
4.74791
2.7347
0.515844
-0.0286627
2.52433
3.65268
1.64837
2.31219
1.8617
0.864377
1.58742
1.49295
-0.49513
-0.375669
-0.630116
-1.01089
-0.913312
-1.01338
-1.04941
-1.04252
-1.07885
-1.07186
-1.09605
-1.01977
-1.0499
-1.12504
-1.11513
-1.09129
-1.05644
-1.02841
-1.00857
-0.943812
-0.924147
-0.83487
-0.731832
-0.640556
-0.745568
-0.856302
-0.885186
-0.968859
-0.992784
-0.90798
-0.82222
-0.730216
-0.581387
-0.552694
-0.542319
-0.538997
-0.386127
-0.259417
-0.187193
-0.183658
-0.246205
-0.379978
-0.389065
-0.29
-0.289318
-0.404287
-0.390373
-0.514558
-0.639129
-0.784714
-0.912684
-1.00805
-1.06714
-1.11673
-1.14386
-1.1409
-1.08292
-1.07317
-0.938673
-0.422882
0.433834
2.1144
2.50177
6.24719
18.0481
42.7926
84.1944
136.39
226.688
375.931
762.308
1192.66
2993.77
4043
5140.12
9114.73
15200.4
25558.4
40219.6
57556.3
39948.2
41074.9
25150.2
19359.8
26103
26652.7
40513.4
56310.8
56196.2
41933.8
33261
44440.1
57364.8
56911.6
56036.7
56198.9
40752.1
41803.1
27463.9
27562.2
27129.1
15476.4
16388
17205.5
14775.2
9548.64
4997.6
2378.79
2474.68
1650.99
965.573
1298.82
884.792
2000.54
4174.88
5328.79
8372.66
8187.39
9056.62
8844.99
5289.99
2474.75
1033.01
452.754
489.854
672.308
387.868
175.566
66.5398
73.217
36.2465
13.9575
25.7102
19.5866
41.3344
89.5362
158.044
190.016
389.346
372.283
623.508
952.325
2144.77
4348.75
8589.92
10592.1
15851.2
21375.9
15930.5
12263.9
7717.04
10179.4
16451.7
27084.4
26907.9
41577.2
56518.1
71016.3
79340.9
87846.1
85951.3
71601.3
72932.9
58360.6
52889.9
60777.6
57876.6
71074.2
85946.2
86195.9
74387.6
62130.9
47918
45805.5
47749.9
42166.2
40502.4
25858.1
16098.1
16063.6
9570.7
4870.03
4808.78
5505
4661.21
3078.09
1501.86
1180.19
857.029
529.663
300.226
168.933
95.5654
68.0369
43.0718
32.2166
52.9899
80.8431
171.116
208.286
352.784
510.509
915.023
1773.3
3253.21
2558.39
3705.27
3257.52
4571.66
9652.17
9962.25
14958.3
27862.5
27106.3
35540.7
35720.4
48017.9
62001
74320.2
86210.3
85991.4
85969.4
71739.1
71086.1
57828.5
47762.4
45989.1
42229.5
27959.5
27082.4
16199.2
16249.6
11272
4628.37
5177.68
3178.05
2596.11
2211.56
1118.46
1494.56
835.284
447.425
221.344
195.057
106.774
61.176
102.023
48.6928
47.2614
38.3134
22.059
20.5121
18.0998
11.9606
10.4101
6.06104
1.13507
1.74144
-0.0608175
-0.529662
-0.296229
-0.225847
1.22416
2.18007
6.725
6.05677
5.94021
6.39893
1.9785
-0.00690427
-0.753895
-0.679097
-0.609799
-0.989487
-1.15946
-1.12064
-1.1748
-1.19382
-1.20861
-1.22517
-1.17605
-1.17993
-1.14349
-0.878318
-0.826285
0.367784
0.725756
4.80523
11.1561
7.68261
17.1816
28.2785
15.9559
10.0384
18.7628
16.5296
30.5234
31.1614
37.9492
69.332
156.265
303.504
598.652
425.525
1117.09
1502.97
1657.93
4034.06
4044.36
4677.26
11265.8
9972.5
14998.4
16186.6
25939.2
40435.9
52885.7
60985.2
58495.7
56579.8
71052.8
71775.8
56290.1
40831.4
41624.9
26950.9
16111.8
9624.08
9669.99
4531.72
5174.23
3151.29
1495.14
1664.51
1194.91
1184.07
355.336
168.657
180.841
100.666
53.654
36.937
37.0648
41.3245
22.5193
22.5783
12.3572
9.45712
6.04079
6.03672
3.40707
3.15257
0.690665
0.00702788
-0.787212
-0.999071
-0.341083
1.59863
2.51128
1.40949
5.00633
7.5902
8.77905
2.06515
5.68796
7.14667
14.8259
7.12558
12.6801
41.3017
43.4909
58.759
88.956
84.6986
166.023
355.051
418.206
1112.15
1106.37
2204.08
3175.94
2608.02
2982.26
3639.21
3621.43
2988.51
2503.22
1033.44
543.223
276.45
161.083
53.5513
76.137
37.6379
25.7169
15.5534
8.08875
3.28656
2.14982
3.14897
1.74447
1.72228
0.512059
-0.105461
-0.693414
-0.72807
-0.966895
-1.09829
-1.18325
-1.2742
-1.23217
-1.26501
-1.28452
-1.30224
-1.30486
-1.21915
-1.18894
-1.0668
-0.940218
-1.17664
-1.00672
-1.01214
-0.296824
-0.281962
1.85907
0.618326
2.65518
3.19117
3.46138
3.39285
7.00661
12.5048
39.2066
43.7486
56.3749
51.1972
96.4844
175.56
298.661
589.287
843.847
1503.05
2563
3721.63
4908.83
4842.78
5507.44
7740.08
10159.9
16484.7
27120.1
27613.1
41953.4
56994.8
71798.3
71389.6
57412
44517.3
33352.4
27692.8
21441.2
15947.6
12288.2
10659.3
15929.6
15550.8
27178.2
26651.7
40583
56431.3
57605.5
40018.7
26191.9
19297
17158.5
16363.3
8341.28
8648.05
4362.77
4676.05
3051.64
3258.23
1806.6
940.128
523.956
454.381
224.527
152.863
71.4324
37.1507
37.3175
40.2705
23.6351
15.2353
7.28245
3.07253
3.12182
2.67693
0.576596
-0.602879
-0.521435
-1.1792
-1.16953
-1.3604
-1.30601
-1.22539
-1.29868
-1.28832
-1.33727
-1.32578
-1.2959
-1.26168
-1.23078
-1.19783
-1.17214
-1.13324
-1.06843
-1.03818
-0.952631
-0.888321
-0.983051
-0.986757
-1.08648
-1.147
-1.20123
-1.17448
-1.17459
-1.12299
-1.05804
-0.961215
-0.836451
-0.82203
-0.79465
-0.640017
-0.472119
-0.426676
-0.283408
-0.239343
-0.259343
-0.246842
-0.234514
-0.196395
-0.203371
-0.203731
-0.269537
-0.232309
-0.24253
-0.25048
-0.236917
-0.22985
-0.226118
-0.26058
-0.212224
-0.199382
-0.233001
-0.229392
-0.187313
-0.238575
-0.272535
-0.245427
-0.248893
-0.241774
-0.204085
-0.202666
-0.375424
-0.367708
-0.375472
-0.381616
-0.523001
-0.602284
-0.694748
-0.788685
-0.872517
-0.924961
-0.955192
-0.836551
-0.783156
-0.839648
-0.654712
0.147811
0.725329
2.84741
5.36711
9.52967
19.104
30.8037
42.2064
46.4037
105.396
188.928
250.538
548.944
706.284
1169.41
3288.53
3998.96
8560.97
11145
18008.4
26772.9
38786.9
55827.6
40582.7
28029.3
26073.7
25808.7
15418.1
8732.21
9127.9
3678.53
3224.22
3038.87
2617.6
1094.58
586.085
526.226
251.188
204.127
166.229
140.409
46.6512
26.6543
34.1075
28.7834
13.7179
10.8156
7.47219
2.39916
1.1246
3.09591
1.22991
0.202137
-0.315142
-0.605944
-0.936213
-1.00213
-0.961582
-0.98029
-0.982976
-0.983236
-0.946668
-0.890939
-0.895348
-0.805664
-0.708166
-0.697724
-0.656231
-0.528444
-0.500888
-0.360867
-0.227332
-0.238861
-0.273965
-0.248404
-0.257642
-0.378268
-0.515608
-0.503983
-0.577334
-0.666826
-0.7585
-0.834832
-0.887387
-0.846304
-0.310066
-0.286634
-0.663699
-0.677178
0.00854255
2.07845
3.78492
6.03019
10.385
17.8538
26.9749
33.4848
30.5996
59.227
138.897
314.624
301.939
380.88
679.274
1681.81
5294.96
6742.3
9119.3
15581.2
23818.3
37303.1
54969.6
42198.6
25580.1
15956.7
8799.9
5443.39
2392.91
2628.13
1166.08
539.004
331.149
269.031
142.191
56.8169
32.6191
22.8724
25.8469
8.65801
2.94539
1.8944
0.998149
-0.106597
-0.707324
-1.00764
-1.05528
-1.05806
-1.02247
-0.987736
-0.925481
-0.836154
-0.730142
-0.685432
-0.540731
-0.519051
-0.401471
-0.338903
-0.213912
-0.216852
-0.255756
-0.231817
-0.17805
-0.176848
-0.220556
-0.220959
-0.288529
-0.38184
-0.496042
-0.492368
-0.605243
-0.66485
-0.736039
-0.805203
-0.855202
-0.885483
-0.855276
-0.657649
0.0297704
1.336
1.93019
2.05589
2.03738
3.90037
10.2096
19.4845
21.2138
18.3071
23.971
38.0604
75.8065
172.83
229.302
522.742
879.796
2413.56
3291.33
4547.46
9214.22
15121.4
23782.4
48882.4
20191.8
6829.07
1861.36
289.042
48.89
25.5
2.06145
0.241526
-0.76947
-1.00013
-0.885927
-0.68849
-0.423787
-0.14739
-0.132655
-0.124501
-0.116336
-0.112948
-0.106967
-0.103387
-0.0863148
-0.0668963
-0.0577662
-0.0804421
-0.0822341
-0.141213
-0.316957
-0.148003
-0.0819619
-0.0821878
-0.0792954
-0.099259
-0.102003
-0.841973
-0.838392
-0.718927
-0.747541
-0.358738
-0.341618
0.370614
1.7431
6.31218
11.2749
15.7437
25.9941
30.5505
31.483
67.6
145.451
248.048
407.794
614.259
912.596
1386.25
2765.74
3834.3
8913.45
49078.4
20473.9
6863.17
1767.85
334.249
84.4937
24.1787
4.92068
0.279864
-0.53584
-0.991733
-1.14218
-1.17359
-1.17537
-1.13942
-1.07002
-0.974937
-0.841238
-0.863673
-0.966245
-1.06002
-1.14896
-1.22032
-1.24442
-1.29679
-1.28238
-1.22675
-1.1827
-1.07103
-0.929012
-0.895388
-0.750125
-0.709221
-0.713135
-0.870264
-0.687782
-0.589896
-0.468395
-0.306738
-0.308851
-0.220668
-0.211311
-0.237663
-0.23961
-0.285753
-0.320551
-0.295232
-0.285656
-0.276699
-0.446386
-0.405187
-0.389951
-0.391193
-0.451918
-0.397746
-0.388234
-0.380921
-0.322417
-0.322797
-0.370292
-0.362806
-0.511747
-0.536026
-0.57125
-0.569192
-0.529335
-0.373733
-0.360235
-0.37394
-0.177008
-0.190334
-0.203378
-0.185111
-0.34
-0.28724
-0.177434
-0.188417
-0.194189
-0.203025
-0.232306
-0.211519
-0.220297
-0.326087
-0.407691
-0.493192
-0.59166
-0.585046
-0.684871
-0.762923
-0.800148
-0.841407
-0.853321
-0.872022
-0.825319
-0.7505
-0.546855
-0.264261
0.582584
0.558824
1.64008
2.49403
7.52326
22.6249
42.6387
43.3627
37.1097
75.1135
259.925
288.103
525.66
1312.61
3191.8
5121.46
8040.82
10511.3
14257.3
24363.9
39360.1
25022.8
15511.4
9348.17
4958.98
2596.06
2079.89
734.883
479.679
637.509
792.215
387.006
228.556
112.907
51.4688
36.1485
20.5903
22.9793
15.7777
15.8555
17.0236
11.6383
4.29532
2.54659
1.52482
3.09815
1.8999
-0.0344788
-0.585157
-0.013651
-0.426313
-0.749422
-0.885454
-0.866173
-0.824789
-0.74401
-0.650402
-0.648616
-0.60891
-0.492544
-0.364171
-0.377424
-0.336251
-0.218374
-0.213316
-0.21124
-0.244063
-0.214068
-0.206656
-0.206522
-0.166499
-0.166956
-0.200525
-0.199751
-0.318028
-0.323878
-0.335214
-0.309617
-0.323073
-0.331442
-0.447388
-0.553852
-0.610509
-0.679372
-0.74932
-0.739785
-0.805486
-0.848626
-0.871881
-0.864869
-0.729098
-0.708017
-0.0760143
4.5072
3.94037
2.09138
2.386
7.64803
14.8731
19.681
20.0878
43.5293
106.183
182.101
319.288
497.918
586.149
933.905
2681.66
5838.6
6737.88
8513.67
14465.4
23919.8
24877.9
15500.2
9762.69
5579.89
5849.29
2461.6
1019.01
408.97
505.031
245.298
118.98
59.2368
41.5367
27.1694
28.7897
9.70645
9.57236
2.64421
1.5605
1.95134
4.5156
-0.285573
-0.822667
-0.747371
-0.846685
-0.861577
-0.831258
-0.82941
-0.802335
-0.73789
-0.661233
-0.662795
-0.634453
-0.714218
-0.753526
-0.799989
-0.841013
-0.83663
-0.857474
-0.794267
-0.76164
-0.0382773
0.590074
2.32614
1.32387
4.5055
3.31948
10.3846
19.5198
15.4267
24.2817
54.5854
147.725
203.41
394.19
630.441
976.542
925.877
2849.99
4118.88
8968.56
10428.4
15930.1
24027.5
24406.5
15679.7
11181.6
10245.4
5474.95
2780.37
985.175
1034.55
617.614
437.659
137.497
176.396
61.1815
35.1921
24.1854
22.0634
11.5624
4.32661
1.34882
1.32986
1.84617
2.78062
-0.0721407
0.0193524
-0.0572591
-0.751201
-0.874655
-0.872109
-0.864547
-0.836734
-0.786314
-0.788524
-0.763277
-0.815756
-0.818207
-0.762724
-0.69334
-0.696181
-0.568432
-0.632224
-0.702553
-0.62049
-0.617811
-0.607278
-0.5124
-0.513841
-0.41471
-0.305275
-0.284236
-0.183493
704.906
995.582
2732.25
4353.74
6699.23
7563.14
14913.6
48944.4
20495.7
6707.11
1763.98
315.487
72.85
18.1519
3.69454
0.358681
-0.729375
-0.966374
-0.87664
-0.692342
-0.695848
-0.500484
-0.489009
-0.528436
-0.383724
-0.575688
-0.620653
-0.616553
-0.618017
-0.750601
-0.765824
-0.72239
-0.719253
-0.67938
-0.636666
-0.649011
-0.6342
-0.58451
-0.473012
-0.482707
-0.352058
-0.368797
-0.375584
-0.25339
-0.185452
-0.189512
-0.207573
-0.202898
-0.245285
-0.238059
-0.511035
-0.635338
-0.601977
-0.585881
-0.419484
-0.30561
-0.434403
-0.445895
-0.42121
-0.301301
-0.302982
-0.371868
-0.449637
-0.542294
-0.540511
-0.440674
-0.43476
-0.411324
-0.296146
-0.298396
-0.20105
-0.197328
-0.145539
-0.14867
-0.159224
-0.184403
-0.21238
-0.192021
-0.187792
-0.181044
-0.156997
-0.178133
-0.169778
-0.205276
-0.178351
-0.175053
-0.13983
-0.138062
56160.2
42256.3
25506
16379.3
9288.31
5776.75
2773.04
1185.98
557.815
434.713
182.864
51.8062
24.496
13.9521
7.62821
2.24603
0.634658
-0.46777
-0.549157
-0.530724
-0.240722
-0.0929243
-0.104611
-0.0990041
-0.112721
-0.30411
-0.316134
-0.324443
-0.290511
-0.301688
-0.2796
-0.28914
-0.307026
57129.5
42621.7
27018.5
15636.9
8097.51
5846.84
3028.41
1182.61
469.87
397.08
213.368
39.6558
22.6836
11.8658
10.553
0.261013
-0.302198
-0.747547
-0.631319
-0.470256
-0.49047
-0.158704
1.38749
3.43289
1.69362
7.44254
6.56536
25.2503
37.4953
34.9776
67.3731
125.024
78.9182
167.942
416.794
497.929
522.132
872.068
2579.71
2742.59
5271.94
8008.14
15167.4
15180.5
9066.45
5420.65
2998.27
2644.75
1043.92
467.988
461.761
314.874
392.286
219.438
61.9448
42.1111
41.5578
31.0494
34.0281
19.066
15.4954
18.1986
3.90408
1.88273
1.23631
2.40031
0.408257
-0.197056
-0.493433
-0.118395
0.165284
-0.746889
-0.737501
-0.851081
57082.9
41269.4
26501.8
15204.5
9473.82
5990.32
2907.63
997.811
854.077
883.429
1624.63
378.393
94.2526
13.9396
3.52458
0.359935
-0.373234
-0.816073
-0.717604
-0.541384
-0.562134
-0.507983
-0.530795
-0.489673
-0.388456
-0.267051
-0.162878
-0.173727
-0.157934
-0.155536
-0.0964007
-0.262608
-0.130069
7486.8
6129.01
3692.91
1091.13
603.124
378.407
199.024
34.909
15.3109
11.1249
16.915
20.8589
19.8958
3.83551
3.54271
3.37181
1.04218
1.06093
0.783216
0.686577
-0.318351
-0.502256
-0.485573
3174.39
5618.33
9338
8508.28
14963.5
14340.6
10134.3
5321.96
5112.85
5479.47
2632.86
1195.43
1219.18
-0.284424
-0.755242
-0.686654
-0.71963
-0.712422
-0.631636
-0.537857
-0.527747
-0.504392
-0.399216
-0.281518
-0.594296
-0.619164
-0.609894
-0.517695
-0.414085
-0.292427
-0.177963
-0.183273
-0.217664
-0.193499
-0.149893
-0.153622
-0.190601
-0.198455
-0.215463
-0.159081
-0.162276
-0.176586
-0.171851
-0.206337
-0.197841
-0.185047
-0.168357
-0.153283
-0.543385
-0.555844
-0.585315
-0.476653
-0.482274
-0.464791
-0.449464
-0.437606
-0.405915
-0.577985
-0.672732
-0.682726
-0.652084
-0.642374
-0.720723
-0.733228
-0.762848
-0.754738
-0.754403
-0.790409
-0.798517
-0.826665
-0.822119
-0.849217
-0.7874
-0.70975
-0.719504
-0.718353
-0.79055
-0.848717
-0.868812
-0.867456
-0.725632
-0.317419
-0.140038
1.97011
0.725168
0.577456
2.04474
4.36097
12.7553
27.198
33.1067
20.6136
33.975
70.04
214.677
334.237
155.132
55.82
22.1847
23.085
19.6625
16.3287
3.3163
1.86894
0.571566
0.629237
1.56727
0.108217
-0.535877
-0.788217
-0.850086
-0.879625
-0.849679
-0.793404
-0.876114
-0.865417
-0.854026
-0.836584
-0.77977
-0.802503
-0.813881
7516.17
6161.56
3696.29
1112.89
640.391
386.619
202.499
36.7138
15.7042
14.0744
3.2329
0.24259
0.914431
0.507792
-0.65505
-0.788039
-0.664756
-0.114039
-0.134451
-0.149275
-0.127563
-0.0971909
-0.120418
-0.13446
-0.148183
-0.142258
-0.120061
-0.0935204
-0.125342
-0.122777
-0.149328
-0.133754
-0.110996
-0.152364
-0.205572
-0.361254
-0.339479
-0.381036
-0.470043
-0.589354
-0.698374
-0.559806
-0.830879
-1.00511
-1.12452
-0.550216
-0.400511
-0.321631
-0.351868
-0.347105
-0.265932
-0.267168
-0.375132
-0.333116
-0.532304
-0.590444
-0.622734
-0.589524
-0.571928
-0.561112
-0.550211
-0.557854
-0.572813
-0.592648
-0.615513
-0.646719
-0.613814
-0.584719
-0.607899
-0.567212
-0.552256
-0.573959
-0.544915
-0.539685
-0.58518
-0.574183
-0.548921
-0.538033
-0.530409
-0.524995
-0.524733
-0.525981
-0.545647
-0.548109
-0.500141
-0.500366
-0.523248
-0.49356
-0.502171
-0.534886
-0.520332
-0.560282
-0.601518
-0.590248
-0.584997
-0.578572
-0.577317
-0.586467
-0.611583
-0.64057
-0.675077
-0.728382
-0.703674
-0.835457
-0.992244
-1.19082
-1.32755
-1.44801
-1.58081
-1.66589
-1.72722
-1.76393
-1.77378
-1.67465
-1.38912
-1.32713
-0.380678
-0.321932
-0.257824
0.229241
1.92163
6.75347
14.6952
19.7895
22.0776
43.8188
108.245
184.773
325.281
501.989
595.995
963.389
2696.06
5753.47
6763.31
8552.85
14485.5
23953.7
38205.7
36789.7
23947.8
15919.2
10543.9
8950.3
4130.26
2876.13
951.484
989.765
636.805
398.178
205.391
147.714
55.123
27.8958
17.8837
17.6375
9.0994
3.65667
0.506572
1.08906
0.224688
-0.956634
-1.01898
-1.53877
-1.72904
-1.72845
-1.75663
-1.7172
-1.67071
-1.57561
-1.43949
-1.38351
-1.19735
-0.991582
-0.934589
-0.898068
-0.873419
-0.841288
-0.808781
-0.793252
-0.789438
-0.783042
-0.771452
-0.768279
-0.78295
-0.65464
-0.762567
-0.72849
-0.747021
-0.621644
-0.737423
-0.714841
-0.74384
-0.623532
-0.74398
-0.731349
-0.717097
-0.720742
-0.721673
-0.72504
-0.72982
-0.736731
-0.744308
-0.749263
-0.769204
-0.789376
-0.670924
-0.794338
-0.770162
-0.796936
-0.683657
-0.807167
-0.786446
-0.819677
-0.713061
-0.833497
-0.807913
-0.794075
-0.786463
-0.77575
-0.760778
-0.757938
-0.77034
-0.779626
-0.78462
-0.800407
-0.836664
-1.01521
-0.999442
-0.976972
-0.957671
-1.00439
-1.08233
-1.1132
-1.19837
-1.27709
-1.17724
-1.19459
-1.2302
-1.23086
-1.36556
1532.52
1186.15
519.825
375.85
135.417
31.7992
20.4535
19.1419
11.1399
1.65905
0.601098
-0.520088
-0.626083
-0.550458
-0.533289
-0.498656
-0.303197
-0.140717
-0.144913
-1.21115
-1.17408
-0.999954
-0.814176
-0.760566
-0.543274
-0.735516
-0.786489
-0.769947
-0.570198
-0.382638
-0.276473
-0.427733
-0.386831
-0.369147
-0.363105
-0.36988
-0.392631
-0.431169
-0.462885
-0.409695
-0.376341
-0.423448
-0.442618
-0.404091
-0.359725
-0.374893
-0.369233
-0.349483
-0.322051
-0.327025
-0.367975
-0.363996
-0.342084
-0.337969
-0.35107
-0.346967
-0.304329
-0.298362
-0.316822
-0.332004
-0.332811
-0.314844
-0.334415
-0.340898
-0.332351
-0.327453
-0.375156
-0.437974
-0.418021
-0.38956
-0.379572
-0.38498
-0.4006
-0.432569
-0.487339
-0.445193
-0.56074
-0.408709
-0.43439
-0.464387
-0.465403
-0.693336
-0.860519
-1.02857
-1.23715
-1.37981
-1.50848
-1.64252
-1.72929
-1.78655
-1.75801
-1.75926
-1.72489
-1.49766
0.666212
0.738726
-0.115729
0.341988
1.97939
2.9316
6.46851
21.2346
37.286
42.7872
38.5862
75.3745
260.991
288.244
517.147
1311.38
3199.59
5091.71
8025.47
10459.6
14301.9
24376.7
23520.2
15798.8
8457.65
6895.1
5801.55
2410.89
1021.33
407.88
511.981
247.49
118.227
58.3991
41.9267
23.116
22.2413
8.9622
8.1668
1.93778
0.0287372
-0.107777
-0.319559
0.353019
-1.40678
-1.67767
-1.66187
-1.77862
-1.77903
-1.73544
-1.64143
-1.50065
-1.44805
-1.25554
-1.03107
-0.978866
-0.7238
-0.678374
-0.663403
-0.489107
-0.42905
-0.428513
-0.325672
-0.181963
-0.163781
-0.147277
-0.16545
-0.19189
-0.166564
-0.152957
-0.168191
-0.187988
-0.241427
-0.273737
-0.288166
-0.2436
-0.185647
-0.171296
-0.19255
-0.22138
-0.224345
-0.202911
-0.181972
-0.197527
-0.215504
-0.186282
-0.207128
-0.213886
-0.193319
-0.169717
-0.188707
-0.21547
-0.183677
-0.164669
-0.185956
-0.206607
-0.197338
-0.185494
-0.173858
-0.164417
-0.139202
-0.10957
-0.113696
-0.147603
-0.154537
-0.119031
-0.123462
-0.163531
-0.375679
-0.701421
-0.323454
-0.304471
-0.634938
-0.29495
-0.279154
-0.582744
-0.271823
-0.260609
-0.103576
-0.129206
-0.160034
-0.348659
-0.338843
-0.336604
-0.338937
-0.329671
-0.341019
-0.463875
-0.610484
-0.771839
-0.95033
-1.09887
-1.19398
-1.26763
-1.31856
-1.34032
-1.3576
-1.38706
-1.38416
-1.39551
-1.45861
-1.46538
-1.4867
-1.38898
-1.43376
-1.24015
-1.2988
-0.392903
1.61752
1.71667
1.69136
1.66895
2.10467
6.72848
12.9263
23.1942
31.8794
38.7551
62.8686
110.311
200.475
211.306
359.038
485.251
290.902
516.483
843.552
1493.78
1166.53
616.073
937.944
2088.17
1821.76
2010.2
4144.16
5278.89
4555.07
4999
2675.62
3113.58
1251.64
1170.17
721.719
789.204
438.751
307.735
150.838
119.187
158.152
51.6783
65.6309
65.6242
65.6144
30.8289
18.8411
8.76542
3.44534
1.8142
1.07819
0.659778
-1.03857
-1.27282
-1.37328
-1.46391
-1.49306
-1.43778
-1.41005
-1.37925
-1.30141
-1.28413
-1.20057
-1.15438
-1.09297
-0.964144
-0.782865
-0.596533
-0.435844
-0.387282
-0.288586
-0.272611
-0.286362
-0.406045
-0.595691
-0.801461
-0.978414
-1.10107
-1.21216
-1.22463
-1.33608
-1.36389
-1.26228
-1.14145
-1.12238
-1.05067
-0.977
-0.818508
-0.600657
-0.400023
-0.400592
-0.605887
-0.829633
-1.00053
-1.02602
-1.17766
-1.29695
-1.40217
-1.48355
-1.53422
-1.53752
-1.57486
-1.49305
-1.51354
-1.22467
-0.460544
0.381308
-0.260404
1.48469
4.85114
6.62892
8.67
16.4857
31.4255
48.845
102.663
78.8792
166.905
94.7654
166.548
370.332
396.17
896.116
1314.12
2386.47
4966.86
9517.91
14768.3
15231.3
25608.3
40209.1
48133.1
58194.6
59532.5
57944.4
58056.3
57571.9
40925.3
41093.7
25213
27183.9
27362.8
15195.5
9016.44
8134.48
9106.17
9526.73
5173.81
4652.88
3029.57
2554.78
1125.51
645.558
476.432
229.712
278.646
332.324
146.139
147.717
185.106
175.357
138.017
68.0967
36.7944
27.6657
14.7985
9.62632
5.74763
2.74321
0.53978
-0.639869
-1.13936
-1.30737
-1.37471
-1.37861
-1.34932
-1.27682
-1.18088
-1.16562
-1.09112
-0.947173
-0.764921
-0.572619
-0.392687
-0.385727
-0.437501
-0.396798
-0.332865
-0.384142
-0.373938
-0.328066
-0.379723
-0.432781
-0.382891
-0.305019
-0.298081
-0.364145
-0.377195
-0.377612
-0.589344
-0.583833
-0.579082
-0.529988
-0.523158
-0.511439
-0.507844
-0.524456
-0.655625
-0.787223
-0.75367
-0.695881
-0.686582
-0.505081
-0.492539
-0.336216
-0.247448
-0.24955
-0.349321
-0.535379
-0.344817
-0.332898
-0.378523
-0.32479
-0.307773
-0.33077
-0.259506
-0.252167
-0.271266
-0.508764
-0.235345
-0.246646
-0.252906
-0.227513
-0.198511
-0.21105
-0.273587
-0.28707
-0.33003
-0.295541
-0.287778
-0.223472
-0.236546
-0.454105
-0.416763
-0.405377
-0.454753
-0.283402
-0.315777
-0.327446
-0.372049
-0.335742
-0.330115
-0.275221
-0.277435
-0.631036
-0.632212
-0.585694
-0.581774
-0.71591
-0.723672
-0.722207
-0.774094
-0.898106
-0.891092
-0.887261
-0.839217
-0.794546
-0.801893
-0.803688
-0.766771
-0.772031
-0.777396
-0.85751
-0.855537
-0.818192
-0.740763
-0.743818
-0.82309
-0.869857
-0.879883
-0.886489
-0.844347
-0.782092
-0.702795
-0.688466
-0.729679
-0.625995
-0.809322
-0.803495
-0.768483
-0.8341
-0.8748
-0.911337
-0.852011
-0.840969
-0.761068
-0.749052
-0.829974
-0.879426
-0.880093
-0.889549
-0.94875
-0.942431
-0.908542
-0.899939
-0.945993
-0.992394
-0.929354
-0.972689
-1.03776
-1.04761
-0.985067
-0.931555
-0.843418
-0.844596
-0.930367
-0.991484
-0.993318
-1.05648
-1.00235
-1.00137
-1.04004
-1.03507
-1.07204
-1.07149
-1.03959
-1.02711
-0.969342
-0.61062
-0.868827
-0.958111
-0.949433
-0.912268
-0.909731
-0.881646
-0.753177
-0.873889
-0.894307
-0.872434
-0.848499
-0.846644
-0.854922
-0.882627
-0.636344
-0.793514
-0.884379
-0.866537
-0.853766
-0.848362
-0.837534
-0.466631
10685.1
683.395
53.1706
0.897432
-1.385
-1.22778
-1.06491
-0.797226
-0.487283
-0.163204
-0.17548
-0.137672
-0.132049
-0.127576
-0.124169
-0.155389
-0.141974
-0.147558
-0.412813
-0.764982
-0.339695
-0.329286
-0.116471
-0.118137
-0.16694
-0.161498
-0.159934
-0.158028
-0.214006
-0.156839
-0.154257
-0.109071
-0.132252
-0.146532
-0.118758
-0.1206
-0.0901368
-0.0922999
-0.117982
-0.138343
-0.129374
-0.11368
-0.111481
-0.0898072
-0.0889758
-0.118043
-0.118088
-0.147247
-0.133553
-0.110488
-0.115102
-0.159431
-0.157846
-0.11198
-0.104073
-0.112895
-0.122929
-0.133229
-0.122502
-0.14029
-0.136294
-0.150818
-0.121059
-0.119836
-0.089968
-0.0894365
-0.111603
-0.112623
-0.138933
-0.131705
-0.143763
-0.162458
-0.158849
-0.163725
-0.144021
-0.132617
-0.133854
-0.114316
-0.120761
-0.0923973
-0.0921818
-0.123194
-0.126371
-0.153201
-0.129864
-0.10175
-0.0955405
-0.12031
-0.120959
-0.143697
-0.162498
-0.145886
-0.332942
-0.323104
-0.314346
-0.31283
-0.313985
-0.320192
-0.337826
-0.524309
-0.52208
-0.512335
-0.55746
-0.416096
-0.353474
-0.360672
-0.374637
-0.311453
-0.268155
-0.255758
-0.306593
-0.371451
-0.354846
-0.401651
-0.337676
-0.346119
-0.353795
-0.279235
-0.274777
-0.339537
-0.535079
-0.547927
-0.507345
-0.509656
-0.501737
-0.699082
-0.705706
-0.713003
-0.726885
-0.896353
-0.918062
-0.952862
-0.896242
-1.12278
-1.08321
-1.14978
-0.983915
-0.963904
-0.946622
-0.767205
-0.759942
-0.754249
-0.935042
-0.943677
-1.01434
-0.925581
-1.05652
-1.04594
-1.04585
-1.05245
-1.00343
-0.960712
-0.972927
-0.98765
-0.993282
-0.970766
-0.959479
-0.977243
-0.953145
-0.945751
-0.966896
-0.945382
-0.942153
-0.979603
-0.97548
-0.970526
-0.962935
-0.959041
-0.953307
-0.951721
-0.945097
-0.90145
-0.898247
-0.914548
-0.889596
-0.894645
-0.919858
-0.903699
-0.918351
-0.948675
-0.955551
-0.956756
-0.959289
-1.01927
-1.08416
-1.09634
-1.11663
-1.14281
-1.10565
-1.20369
-1.25444
-1.3596
-1.44674
-1.53547
-1.62091
-1.67793
-1.7111
-1.73752
-1.72262
-1.55526
-1.55063
-1.27133
-0.825236
-0.40683
1.33634
6.84202
11.89
18.0602
23.1086
28.4426
33.095
68.0487
144.872
245.054
401.225
618.842
910.56
1412.29
2767.18
3859.74
8876.32
10995.7
17316.3
24386.5
36971.6
55767.9
55494.8
38138.2
26358
16392.6
15183.1
8018.9
5278.02
2730.38
2586.54
866.918
517.399
308.065
410.694
166.172
77.3398
40.1025
66.4717
36.7177
22.081
18.4978
5.64866
0.58703
1.26895
-0.680317
-1.33983
-0.748596
-1.53183
-1.71209
-1.63064
-1.69253
-1.6468
-1.60977
-1.52551
-1.479
-1.38263
-1.32143
-1.27483
-1.24747
-1.22543
-1.20598
-1.20204
-1.08717
-1.09278
-1.16111
-1.21152
-1.31079
-1.31988
-1.3297
-1.34426
-1.3668
-1.39776
-1.43943
-1.53268
-1.57351
-1.623
-1.59752
-1.60059
-1.62934
-1.60152
-1.57426
-1.18776
-1.03287
-0.14167
0.790008
1.81737
4.11996
5.85825
9.70454
8.87928
12.0735
21.2805
46.0786
88.8756
166.017
241.371
308.203
642.787
838.511
697.921
1010.54
2725.32
4362.74
6731.99
7588.29
14909.1
18128.9
27535.4
39556.9
56372.7
57207.1
37567.5
25099.4
23818.9
15005.4
8491.47
5059.79
5609.31
3141.53
1222.36
1626.88
855.198
569.77
443.374
274.884
143.178
69.8531
35.5915
16.3378
16.2047
15.9127
7.74757
4.06554
1.18642
1.06747
-0.366421
-0.625688
-1.03404
-1.41568
-1.54408
-1.6294
-1.60642
-1.60927
-1.56386
-1.50342
-1.46877
-1.45065
-1.44036
-1.42728
-1.41399
-1.4038
-1.31582
-1.22522
-1.12155
-1.11564
-1.12242
-1.01819
-1.10712
-1.08129
-1.09736
-0.998035
-1.0905
-1.07377
-1.0972
-1.00484
-1.10021
-1.08858
-1.0882
-1.09045
-1.09304
-1.09838
-1.10333
-1.11112
-1.11858
-1.13845
-1.05031
-1.14134
-1.12105
-1.14202
-1.05552
-1.14864
-1.13151
-1.1562
-1.07162
-1.16565
-1.15036
-1.1456
-1.17779
-1.10378
-1.08054
-1.18232
-1.21044
-1.29467
-1.31475
-1.30385
-1.28045
-1.28092
-1.26677
-1.25807
-1.26829
-1.25251
-1.24621
-1.25592
-1.24783
-1.24364
-1.23046
-1.2284
-1.22461
-1.22027
-1.21556
-1.20856
-1.21533
-1.21505
-1.21785
-1.20486
-1.20947
-1.22777
-1.21672
-1.228
-1.24976
-1.25654
-1.29284
-1.37918
-1.36434
-1.36289
-1.37301
-1.30071
-1.35887
-1.33911
-1.35115
-1.28431
-1.34094
-1.32393
-1.30636
-1.29459
-1.31033
-1.28666
-1.25961
-1.32317
-1.29651
-1.3468
-1.3562
-1.30136
-1.35933
-1.34152
-1.34437
-1.35405
-1.36773
-1.31996
-1.37383
-1.35961
-1.37669
-1.33311
-1.38545
-1.37465
-1.37385
-1.38352
-1.38712
-1.37349
-1.36721
-1.28956
-1.2766
-1.17109
-1.16571
-1.16706
-1.17151
-1.19398
-1.22953
-1.32723
-1.30618
-1.28893
-1.27832
-1.27684