/*--------------------------------*- C++ -*----------------------------------*\
  =========                 |
  \\      /  F ield         | OpenFOAM: The Open Source CFD Toolbox
   \\    /   O peration     | Website:  https://openfoam.org
    \\  /    A nd           | Version:  7
     \\/     M anipulation  |
\*---------------------------------------------------------------------------*/
FoamFile
{
    version     2.0;
    format      ascii;
    class       surfaceScalarField;
    location    "18.8";
    object      phi;
}
// * * * * * * * * * * * * * * * * * * * * * * * * * * * * * * * * * * * * * //

dimensions      [0 3 -1 0 0 0 0];

internalField   nonuniform List<scalar> 
43852
(
-0.000514129
7.02754e-05
0.00240528
-0.00463248
0.00211848
0.000189638
0.000468673
-0.00230734
0.000723062
-0.000869045
-0.000129513
-0.00502334
0.0074177
-0.000325201
0.00279369
-0.00486097
-0.00204852
0.00516422
-0.000126107
0.00386532
-0.00448457
0.00419366
-0.00377318
-0.00111378
0.0038687
-0.0037783
0.00526148
-0.00436353
-0.00310952
0.00468064
4.51925e-05
-0.004824
0.00209414
-0.00411187
0.00288649
-0.000155677
-0.00426544
0.00253794
-0.00182688
0.00226573
0.00252312
-0.00308236
-0.00399009
-0.0015211
0.00197691
0.00117288
-0.000809756
-0.00264475
-0.00277
0.001407
-0.000502166
0.000459736
-0.00216069
-0.000459639
-0.00368811
0.00830035
-0.011908
0.0103408
-0.000539353
-0.00371214
0.000717605
-0.00108697
-0.00176359
0.00307598
-0.0133208
0.00415402
0.00267668
-0.00088381
0.00251897
-0.00218376
0.00151592
0.00181135
-0.0643462
-0.000125633
0.0116086
0.0148194
0.0123606
-0.00209215
0.00989153
0.00456463
-0.0588534
-0.000272107
0.00471224
-0.002695
-0.00723614
-0.00693061
-0.00616747
-0.00434125
0.00584849
-9.13068e-05
-0.00755079
0.000176767
0.000421784
-0.00366068
0.00472954
0.000582664
-0.0030652
0.00449364
-0.000111368
-0.00135163
0.00502763
-0.000760908
0.00415438
-0.00131375
0.00510367
-0.000504458
0.00600624
-0.00298257
0.00464026
0.00711826
-0.0037098
0.000295514
0.00379036
0.00645315
-0.00790583
-8.45288e-05
0.0539153
3.48508e-05
-0.00106317
0.0411247
-0.00554143
-0.00126648
-0.00648004
0.0407435
-0.00747575
-0.00427461
-0.00614027
-0.00690378
0.0583907
2.25001e-05
-0.000431671
0.00629245
-0.00318718
-0.00320308
0.00629312
-5.03715e-05
-0.000226723
-1.58549e-05
0.00988681
-0.000384553
1.5067e-05
-2.50054e-05
0.0134522
-0.000742186
0.000262372
-0.000812591
-4.56375e-05
0.0139204
0.000152915
-7.78796e-05
-4.47229e-05
0.00241915
0.000117151
0.000821046
-5.51578e-05
0.00235428
0.000116947
0.000720491
-7.96578e-05
0.00228198
-3.28829e-05
0.000689333
-0.0001193
0.00219108
-0.00020226
0.00055949
-0.000105138
0.00184465
0.000589714
-0.000150911
0.00157725
-0.000231463
-0.000247423
-3.39479e-05
-0.000158333
0.013287
0.000356335
0.0137538
0.000119979
1.00602e-05
0.0139523
-0.00127977
0.0125329
-4.77043e-05
-8.49042e-05
0.00139786
0.0131759
0.000103345
0.0139049
-0.000354744
-0.000414363
-5.28206e-05
-0.000421505
1.93366e-06
0.0139113
-8.94199e-05
-7.98071e-05
4.29713e-05
0.00172714
-0.000202633
-1.55137e-05
0.00167354
-3.15172e-05
0.00164171
1.52754e-05
0.000145219
-8.04379e-06
0.00166755
4.22924e-05
-1.24323e-05
0.000415276
0.00164882
4.07222e-05
0.000436689
3.30378e-05
-0.000158585
0.00162246
-0.000175192
-0.000292825
-4.27838e-05
0.0136629
-5.26596e-05
0.0137628
0.000246722
0.000159621
-6.00035e-05
0.0135093
0.000284979
0.0115796
-0.000347013
0.00578282
-0.00152543
0.0115691
3.5682e-05
-0.000176021
0.0010935
0.0130838
0.000260533
0.013577
-0.000417005
-0.000382817
-4.70782e-05
-0.000193802
-4.39035e-05
0.0137926
6.74687e-05
-0.000176875
0.00164096
-1.5504e-05
-8.52779e-05
3.26848e-05
0.00165709
4.8038e-05
3.13862e-05
0.00159846
0.000206962
0.000143487
-3.3829e-05
0.00151607
0.000189705
0.000567507
-0.000154783
0.00152918
0.000547454
-0.000113033
0.00178436
2.92441e-05
6.78789e-05
-0.000326914
-0.000675911
0.0127801
-0.000114079
0.0136094
0.000240283
-0.000419539
-6.23622e-05
0.0128241
0.000165782
0.0114127
0.0032296
-0.000161619
0.0087946
-4.54775e-06
-1.81729e-06
0.00494312
0.00795461
0.00487144
-0.00323331
-0.000319124
0.00848377
-0.00716025
-0.00608519
-0.00428825
0.0523082
-2.11672e-05
0.0324071
-0.00629979
-0.00614759
0.0350122
-0.00419416
-0.0060436
0.0539117
8.38253e-05
-0.000759496
0.00509606
-0.00131745
-0.000589518
0.0050479
-0.00133778
-0.000184343
-0.00305642
0.00450717
-0.00365584
0.00471791
-0.000135788
-0.00129159
0.0125087
0.00024766
-0.000387914
-2.2717e-05
0.0139394
2.79833e-05
-0.000846444
-0.000760492
0.000202049
-0.000190733
0.01378
-0.000118091
0.000100913
-7.38553e-05
0.00236154
-4.16436e-05
-6.32295e-05
0.00242337
0.000779259
2.51043e-05
0.00246193
-5.40842e-05
0.000801789
-5.16521e-05
0.00245315
0.000904299
6.82408e-05
0.00236001
-1.22248e-05
0.000840844
8.32691e-05
6.71086e-06
0.00310827
0.000337589
-6.08514e-05
0.00041057
0.00344083
0.000697245
-0.000125895
0.000718787
0.000160002
0.000315413
0.000753818
-0.000858141
0.000147388
0.00199768
-0.000289807
0.00192517
0.000138732
-0.000208182
0.00248689
0.000510441
-0.000165987
0.00272772
0.000250005
-3.30718e-05
0.00237964
-0.000138493
-0.000185012
0.00245935
-0.000504777
-0.000167665
0.0019541
0.000104169
0.000107518
0.00164604
0.000151561
4.02313e-05
0.00217226
-0.000399306
-2.28351e-05
0.00219734
0.000161889
3.73875e-05
0.0016466
0.000180373
3.04019e-05
0.00199817
-7.21673e-05
-8.49194e-05
0.00171618
-3.67239e-05
-0.000172853
0.00172661
-0.000261797
-0.000156852
0.00196858
0.000261912
-2.66817e-05
0.00154937
0.000165874
3.45251e-05
0.00165848
-2.85082e-05
-0.000103749
0.00133679
-0.000312913
-7.15257e-05
0.0013167
-0.000251829
9.97031e-05
0.00162585
0.000257546
-4.86419e-05
0.0012625
0.000426888
-0.000207501
0.000913057
-2.40064e-06
-0.000759565
0.00171816
-0.000156645
-0.000596005
0.00133612
-0.000211059
-0.000224028
0.000976892
-0.000253833
3.37876e-05
0.00136023
-9.37284e-05
0.000106709
0.00188372
0.000456079
8.45082e-05
0.00149156
-8.67189e-05
-2.19943e-05
0.00207387
-8.22458e-05
1.39576e-05
0.0020633
0.000476804
0.000101732
0.00155679
0.000109654
0.00186846
-0.000158609
-0.000310749
0.00238324
-0.000170017
-0.000390416
1.45965e-06
0.00215821
0.000343068
-0.000126208
0.00229101
0.000612048
0.000116982
0.00165123
0.000205456
0.00190593
-0.000171224
-0.000240346
0.00196704
-0.000318773
-0.000769878
0.00197295
-0.000169456
-0.000352161
0.00180978
0.000127756
0.000172654
0.00245246
-0.000208151
0.000473522
0.0026097
-0.000163953
0.000259284
-3.63278e-05
0.00231309
-0.000134089
0.00238912
-0.000181239
-0.000487168
0.00190067
-0.000161119
0.000104069
0.000102445
0.001594
0.000155338
3.53929e-05
0.00210966
-0.000385648
0.0021418
-1.95795e-05
0.000162686
0.00160223
3.46687e-05
0.000182176
2.87467e-05
0.0019483
-6.55661e-05
0.00167688
-8.146e-05
-3.06193e-05
0.00168727
-0.000169246
-0.000239697
0.00193865
-0.000148126
0.000278578
-3.28124e-05
0.00153431
0.000224452
5.20829e-05
0.00166475
-3.12843e-06
0.00134175
-9.22973e-05
-0.000195749
0.00135193
-9.88404e-05
-0.00029657
5.45827e-05
0.00165303
0.000310654
-2.70315e-05
0.00156503
-4.89176e-06
0.00192894
-0.000133346
0.000176826
0.00174379
-0.000172771
-0.000215174
0.00164349
-7.44825e-05
1.92217e-05
0.00205227
1.34635e-05
0.00035442
6.67254e-05
0.00152008
-3.62112e-05
0.00223618
-0.00011018
-0.000601266
-5.22271e-05
0.0023284
-0.000281429
-4.23649e-05
0.002757
0.000212088
-0.000210031
0.00259364
0.000627287
3.4777e-06
0.00244444
-3.82561e-05
-0.0002615
0.00238295
1.52122e-05
-0.000340699
0.00259174
0.000364471
-0.000210083
0.00233503
0.000789611
0.000141709
0.0017512
0.000239854
0.00193912
-0.000165272
-0.000193687
0.00193347
-0.000312966
-0.000592105
0.00189189
-0.00016991
-0.000335224
0.000118863
0.00163543
0.000393355
-0.000113668
0.00227099
0.000292808
0.00215106
2.39493e-05
-9.66908e-05
-0.000169321
0.00228401
-0.00015458
0.00192059
-0.000448036
-0.000159666
0.0019025
8.35706e-05
9.67795e-05
0.00158633
0.00018322
3.0599e-05
0.00215586
-0.000429864
-2.12913e-05
0.00217205
0.000190833
3.26642e-05
0.00165474
0.000163766
2.82506e-05
0.00198414
-5.42639e-05
-8.81166e-05
0.00174066
-4.55158e-05
-0.000172744
0.00173693
-0.000252982
-0.000161476
0.00199561
0.000265537
-2.76047e-05
0.00155622
0.0001761
3.38391e-05
0.00167459
-2.33807e-05
-0.000103634
0.00134667
-0.000308592
-7.49353e-05
0.00132933
-0.000245828
9.68998e-05
0.00163392
0.000264431
-4.39993e-05
0.00127084
0.000437892
-0.000204552
0.000915059
7.03844e-06
-0.000762296
0.00172244
-0.000147749
-0.000598857
0.00134666
-0.000212619
-0.00022068
0.000982436
-0.00024878
3.62984e-05
0.00136986
-0.000103444
0.000109913
0.00188891
0.000475888
8.3211e-05
0.00151491
-0.00010905
-2.27497e-05
0.00209008
-4.30029e-05
1.65949e-05
0.00212172
0.00042596
0.000108756
0.001566
0.000187403
-0.000169925
0.00194845
-0.000431213
-0.0001552
0.00240448
-0.000264512
7.70459e-06
0.00232085
0.00020104
-0.000118451
0.00226855
0.000766604
0.000115862
0.00181181
0.000115913
-0.00015471
0.00192216
-0.000360504
0.00209365
-0.000281189
-0.000328761
0.00196637
-0.00064617
0.000734293
-0.000297267
0.000696007
-8.89273e-06
0.00036956
0.00335002
-0.000802137
0.000401271
0.00305599
-0.000758948
0.000399
-0.000607404
0.00296991
-0.000139955
-0.000389125
0.00262115
-0.000428373
0.000747731
-9.81539e-05
0.00068992
0.00010893
0.00023192
-0.000506802
0.00335822
5.85358e-05
-0.00033072
0.00300639
-0.000332597
0.00104512
-1.22799e-05
0.000738629
0.000279254
3.06037e-05
-0.000473547
0.003478
0.000260648
-0.000261628
0.00295716
0.000370947
-0.000171591
0.0020336
0.000290818
0.000256004
-2.96782e-05
4.75592e-05
-0.000542276
5.40448e-05
-0.000418767
0.000123908
3.00455e-05
-0.00020302
0.00223732
0.000456942
-0.000486558
-0.00032478
0.00337764
0.00029537
-0.000233988
0.00261138
3.23482e-05
0.000617015
-0.000235921
0.000609564
-0.000456214
-0.000283257
0.00249105
6.34474e-05
-0.00026101
-0.000514502
0.00319947
0.000227586
0.000711955
-0.000165686
0.000991405
0.00025428
-0.000204646
-0.000404026
0.00301005
3.46324e-05
0.00076283
-0.000213304
0.00075454
-0.000362655
-0.00033095
0.00283055
9.71344e-06
-3.26869e-05
-0.000496783
0.00346007
0.000291629
0.000748229
-0.00011098
0.00106774
-0.000162091
-0.000320572
0.00301642
8.61925e-05
0.000201473
-0.000501438
0.00331836
0.000413597
0.000688756
0.000739474
-0.000624017
0.0031644
5.41328e-05
0.000122517
0.00221345
-5.72592e-05
0.000105929
0.00289996
-0.000261625
0.00352734
0.000357016
-0.000359282
0.00265154
0.000141743
0.000392511
-0.000568994
0.00298544
-0.000570954
0.00334713
0.000468258
-0.000321968
-0.000144341
0.00299978
-0.000582475
0.0034109
0.000519553
-0.000577496
-0.00049308
0.00292101
0.000507698
-0.000577787
0.00292177
-0.000532417
0.00304401
-0.00056307
-0.000507763
0.00295846
-0.000268771
-0.000257247
0.00288046
-0.000311987
-3.87924e-05
0.00251506
0.000359709
-2.13816e-05
-4.08079e-05
0.00125622
9.58165e-06
0.0025611
-0.000183822
0.00039694
6.71803e-05
0.00167133
-3.78092e-06
2.22854e-05
0.00164329
0.000162143
1.59689e-05
0.0016512
8.5968e-06
0.000428901
0.00163506
-0.000144762
4.13638e-05
0.000420101
0.00164599
2.44717e-05
4.22927e-05
4.65316e-06
0.00166288
0.000197561
1.3771e-05
5.98369e-05
0.00163526
8.93161e-05
-1.88247e-05
0.000434281
0.00165347
-7.21999e-05
3.69466e-05
0.000376953
0.00170261
7.5412e-05
3.64618e-05
0.0016504
1.67606e-05
0.000223389
-4.01857e-05
0.00154623
0.000183907
0.000203672
-0.000171001
0.000615483
0.00155407
4.21231e-05
-0.000129076
0.000585352
0.00182262
-9.95691e-05
-0.000139033
0.000715006
0.00217997
-9.73014e-05
0.00228184
0.000727249
8.20045e-05
0.0022321
-0.000109292
0.000144467
0.00288046
-0.000197722
-0.00062842
0.00323229
3.68279e-05
0.00226383
-9.38881e-05
0.00294908
-0.000249734
0.00355009
0.000326348
-0.000356436
0.00269335
0.000349436
-0.000557029
0.00302457
0.000253831
-0.000527587
0.00326184
-0.000351977
0.00312754
-0.000554871
-0.000436698
0.00328062
-0.000575648
-0.000478893
0.00292928
-0.000297523
0.0025135
0.000363875
0.0012597
0.000310788
0.00256257
-0.000120307
0.00299665
-0.000214988
0.00257161
0.00127412
0.00359218
0.000364943
0.00051353
-0.000264869
-0.00083282
0.0122078
0.000573405
0.000691065
-3.52043e-05
-0.00284554
-0.00325327
-0.00331741
0.000166916
-2.48898e-06
0.00106579
0.000880932
-0.00144226
-0.00378706
0.00038285
6.3943e-05
0.00256246
0.000512173
0.00044655
0.000540758
-0.00080265
-0.000975926
0.00047144
0.000402445
0.00364506
-0.000792017
0.000722477
0.000343282
0.00342432
-0.000641328
0.000485899
0.000334423
0.00301251
-0.000499372
0.00069811
0.000118305
8.88331e-06
-0.000339712
-0.000242993
0.00184609
-0.000234029
-0.000671078
0.000135153
7.30588e-06
-0.000267459
0.00141844
8.66859e-06
3.72921e-05
0.00152421
-8.95091e-06
-0.000142156
4.5258e-05
0.00161349
1.03645e-05
3.59933e-05
-0.000135984
0.000976003
-0.0016043
0.00100823
0.00123283
0.00110835
3.19932e-05
-4.72251e-06
-0.000160076
0.00112976
9.0564e-05
-1.95262e-05
-9.30046e-05
0.00108526
0.000111053
-5.90209e-05
-8.28899e-06
0.000555672
-0.000870195
0.00067694
0.000721404
0.000729569
-0.00019755
3.54728e-05
-1.24784e-05
0.000654389
0.000152583
2.03817e-05
-9.86775e-05
0.000680185
4.61326e-05
-8.63719e-05
1.34415e-05
0.000507509
0.0001578
0.000195192
-0.000181833
0.00030756
-0.000250548
7.96082e-05
0.000369113
0.000321996
9.14335e-05
-0.00011837
1.15787e-05
0.000664449
0.000223181
-0.000203546
-0.000363219
0.00118485
-0.00031883
-0.000236963
3.4189e-05
0.000938694
-0.000611775
0.00105214
-0.000195979
0.000310552
-0.00146525
0.00117963
0.000911696
0.000185947
-0.00066712
0.000371176
0.000419531
0.000173321
-0.000537124
0.000590946
-4.24792e-05
0.000263116
0.00068458
-0.000987124
0.000211446
0.000185261
0.000139691
-0.000474601
0.000411094
0.000554291
-0.000305107
-0.000241896
0.000176274
0.00153205
-0.000767141
-8.6187e-05
-0.000125292
0.00259489
0.000251258
4.2791e-05
-0.00135776
0.00394659
0.000210293
-0.00135458
-0.00020773
0.0019609
0.000383994
0.00182315
-0.000222195
0.00101095
-0.000528308
-0.000508381
0.00198619
0.000587828
-9.19593e-05
-0.000233338
0.00074815
0.00074518
0.000248883
-0.00050932
0.000102864
0.00117633
0.00124546
-0.000312705
-0.00136406
0.000973674
0.00095719
-0.000430036
-0.000324654
0.000454929
-0.000446045
0.000419727
0.000544929
0.000579456
0.000397726
-0.00021281
-0.000309526
0.00104798
-0.000231311
4.21942e-05
-0.000279506
2.63229e-05
9.65607e-05
-0.000167
-0.000689446
2.77599e-06
-0.000242036
0.000470677
-0.000716911
-0.00102338
0.000580037
-6.47015e-05
-0.000172448
-0.00119216
-0.00027545
-0.000316897
-0.000662804
7.30232e-05
-0.000285568
-0.000294508
-0.000729304
-1.04669e-05
-0.00110643
-0.000443393
-0.000725635
0.000656112
-0.000639458
-0.000753654
-0.000635433
0.00101831
-0.000354967
-0.000428357
0.00018515
0.000224754
0.00062814
-3.60658e-05
6.60867e-05
0.000452783
-4.54341e-05
0.00128725
-0.000321532
-0.00114316
0.000243296
0.00129636
0.00124417
-0.000800878
0.00144
-0.000151251
0.0019965
-0.00061505
-0.00232088
0.00237917
0.00117807
0.000200815
0.000955754
-0.000338309
0.000825593
-0.000452232
-0.000194918
0.000999533
-0.000377747
0.000672955
-0.000132638
-0.000462115
1.07528e-05
0.000304315
-0.000758656
0.00068861
0.00113489
-0.0012383
-0.00131575
-0.000425892
0.00187658
0.000344569
-0.0016923
-0.00099432
0.0015144
-0.000681535
0.00162653
-0.00259442
-0.00135768
0.00113474
-0.000501719
-0.00211463
0.00266392
-0.00111654
-0.00104895
0.000480497
-0.000429751
-0.000854069
-0.00133865
0.000754151
-0.0016956
-0.000394244
-0.00179175
-0.000309291
0.00237581
-0.00197046
-0.00261984
0.000682745
-0.00279919
0.000320766
6.79217e-05
-0.0013323
7.84662e-05
-0.00129544
-4.51759e-05
-0.000838099
-7.10002e-05
-0.000378605
-1.23992e-05
0.000641445
-0.00059632
0.000316647
-0.000318583
0.00113112
0.00012526
-0.00268636
0.00174624
0.000838386
-0.000463029
0.000221368
0.000533674
-0.000755543
-0.000874944
0.00141946
-0.000183196
-0.00229504
-0.00025831
0.00171573
-0.00233607
0.00249128
-0.000948532
-0.00133181
-0.000170153
-0.00151631
-0.000541213
-0.00116641
0.00101128
0.00150505
0.00148841
-0.00161393
-0.00186447
-0.00103232
-0.00255809
0.00201544
-0.00141514
-0.00272527
-0.000848234
0.00243005
-0.0005837
-0.00158934
-8.24711e-05
-0.00143456
9.51668e-06
-0.000628228
-0.00082914
0.000949879
-0.000927786
-0.000237531
-0.000561094
0.000272723
0.000750409
-0.000578848
0.000386976
2.56427e-05
-0.000680132
-0.000107602
0.000357747
0.000620105
-0.000484181
0.000337537
0.000256449
-0.000677826
0.00123563
-0.000980205
0.00103986
0.00045614
-0.000176087
-8.52902e-05
0.000730469
-0.000334114
-0.00183059
0.00048706
-0.000653098
-0.00128596
0.000420988
-0.000511388
-0.00174112
-0.000319468
0.00059617
-0.00142412
-0.0007994
0.000735549
-0.000610635
-0.00102436
-7.10471e-05
0.000280488
-4.25792e-05
-0.000515342
0.000301159
-0.000617236
0.000521882
7.77006e-05
-0.000763363
0.000355448
-0.000287719
-0.00145816
-0.000547029
-0.00098733
-0.000198988
-0.00059341
-0.000406506
1.25705e-05
-0.000373073
0.000404034
-0.00041458
-0.000675232
0.000278482
0.000752622
-0.000148649
-0.000189113
-6.33373e-05
-0.000149711
0.000269714
2.74246e-05
-0.000134971
-0.000226497
0.000281022
-0.000175933
-0.000475509
-5.3032e-05
-0.000217008
-0.000326165
-1.48154e-05
-0.000108997
-0.000642927
-0.000312802
0.000492312
-0.000946434
0.000140745
1.11605e-05
-0.000416712
-0.000899474
3.96826e-05
0.00032881
-0.000315482
-0.000768195
0.000249
-0.000824988
-7.92594e-05
-0.000330925
-0.000623175
0.000447782
-0.000319266
-0.000500455
7.17581e-05
-0.000615623
0.000178919
-1.9991e-05
-0.000510167
7.67379e-05
-3.20778e-05
0.000546037
-0.000701341
-0.00102663
0.000671072
0.000675731
1.88458e-05
-7.32476e-05
0.000408835
-0.000180222
0.000659249
0.000137943
-0.000417092
2.78428e-05
0.000250347
8.44444e-05
-0.000678008
9.80772e-05
-7.10914e-05
-0.000572821
0.00016783
-0.000136724
-0.00103102
-0.000597587
0.000636701
-0.00113705
-0.000185765
0.00030807
-0.000348814
-0.000985352
-0.00019367
0.000389718
-0.000145707
-0.00102335
0.000115998
-0.0013109
-6.32021e-05
-0.000289028
-0.00107656
0.000184692
-0.000130484
-0.00112282
7.05227e-05
-0.00108866
8.85699e-05
-3.38347e-05
-0.000914165
-1.63681e-05
-0.000127676
0.000793544
-0.00116385
-0.00157796
0.00103362
0.00109112
-0.000285982
-2.86599e-05
0.000218044
-0.000116869
0.000970126
4.19503e-05
-0.000736836
-5.79212e-05
0.000120692
7.57882e-06
-0.00082899
-4.36021e-06
-3.28671e-05
-0.00070966
1.95089e-05
-9.81087e-05
-0.00135335
-0.000990209
0.000895533
-0.00158752
8.78e-05
-0.000141471
-0.000311156
-0.00130579
-0.000213038
0.000241766
-0.00023614
-0.00127134
3.08059e-05
-6.4429e-05
-0.00158624
-0.000165023
-0.00159446
-6.59776e-05
-0.00141579
-4.5474e-05
-0.000142815
-0.00114451
-0.00012293
-0.000140034
-6.78147e-05
0.000557054
0.000798248
0.000404706
0.00151334
7.6874e-05
-3.73098e-05
-8.17051e-05
-0.00119049
2.1715e-05
-0.000140473
7.3518e-05
0.000458007
0.00105419
0.000365941
-0.000115338
-0.000115237
0.00197211
0.000290256
-0.00205047
-0.000327795
0.000966392
-0.00119132
0.00121824
0.000978263
0.00115074
3.95264e-05
-0.0001491
-7.51396e-05
0.00163517
-0.000107377
-0.000327296
-5.01972e-05
0.00153715
0.000323122
-0.000207534
0.0013939
0.00020298
-6.62077e-05
0.000729824
-0.000884541
0.000896482
0.000650765
0.000832756
0.000135307
-0.000122217
-0.000116992
0.00122527
8.68168e-05
-0.000407064
-7.319e-05
0.00126536
0.000385101
-0.000260148
0.00120177
0.000227849
-6.88308e-05
0.000588639
-0.000730231
0.000783394
0.000558284
0.000611228
7.31361e-05
-7.90117e-06
-8.89809e-05
0.00085936
4.87198e-05
-0.000303215
5.28898e-06
0.000788695
0.000330764
-0.000278081
0.00064191
0.000259486
-0.000168776
0.000257014
-0.000440795
0.00043441
0.000389352
0.000233899
0.000276799
-0.000208408
-4.65972e-05
0.000672525
0.000520836
-0.000653194
-0.000307448
0.00163576
0.000396278
-0.000941755
0.00247171
0.000735406
-0.00108694
0.000979856
-0.000555057
0.00150248
0.000542835
0.00123586
0.000932255
-0.000393616
-0.000795373
0.00251946
0.00176736
-0.00144277
-0.00160899
0.00287467
0.00317762
-0.00286023
-0.000673145
0.00247861
0.00331789
-0.00150357
0.000350529
0.00239357
0.000214448
-0.000215202
0.00190853
-0.00064939
-0.000693296
-0.00048051
0.00205752
-0.000921217
-0.000870938
0.000572761
0.00243312
-0.00217534
-0.00131102
0.000984468
0.00148304
-0.000895496
0.00127873
0.000496789
-0.000118386
0.000582151
-0.000322527
-0.00107691
0.000334307
-0.000317085
-0.00042535
-0.00038337
0.000152261
-0.000420642
-0.000525826
1.06479e-05
0.000107891
9.91896e-06
-0.00014714
0.000135261
-3.45161e-05
-0.00045184
0.000458869
1.59233e-05
-0.000254483
0.00125313
0.000674338
-0.00147676
-0.000434839
0.00138132
0.000484324
-0.00046064
0.000495651
-0.000385195
-0.000747753
0.000183323
-3.02571e-05
-0.000396152
0.000140039
-7.67848e-06
0.00071833
-0.000270536
-0.00168429
0.000840194
0.000683484
0.000237669
-6.29406e-05
0.000258203
-8.44932e-05
0.000247535
-0.001074
-0.000106825
0.000194379
-0.000527812
3.35328e-06
-0.000170312
-0.00144361
-0.00120005
0.000293222
-0.000259502
-0.000976511
0.000379204
-0.00034335
-0.000692341
-0.000404047
-0.000633828
-0.000594294
0.000930316
-0.000394576
-0.00133649
-3.89222e-05
0.000470718
-0.00219073
-0.000156445
-0.00172741
-0.0018598
0.00185803
-0.000461703
-0.00181044
-0.000814197
-0.000579898
-0.0022069
-0.000851446
0.00121308
-0.000359273
-0.00081709
-3.04026e-05
0.00299124
-0.000887243
0.00115938
0.0023325
-0.00146501
-0.00225386
0.00167788
0.00272407
-0.000988936
0.000424114
0.00162339
0.00157612
0.00133504
0.00083062
-0.000550372
0.00290645
0.000448572
-0.0012287
0.00301667
-0.000554681
-0.00291525
-0.00167819
0.00433937
0.00327102
-0.00145717
-0.00074038
0.00200568
0.00079943
-0.00167554
0.00175118
0.000814376
-0.000311882
0.000629342
-0.000332662
-0.00103172
-0.000575822
0.00160735
0.000795609
-0.00138837
0.00155187
0.000685318
-0.00104112
-0.000741356
-0.00226004
0.00140302
0.00125107
-0.00134713
-0.000737889
-0.00148012
0.000847932
-0.000886987
-0.00170902
2.06742e-05
0.000486869
0.00101725
-0.000926162
-0.00277426
0.000116607
-0.00164265
0.000830991
0.00214057
-0.00156001
0.00124786
-0.00390581
0.00197177
0.00319637
8.05053e-06
-0.000289463
0.000626635
-0.00139641
0.00254453
0.000822583
0.000755692
-2.09609e-05
-9.68053e-05
0.000814336
-2.86771e-05
0.000132725
-0.000102666
0.000181389
0.00015313
6.2623e-05
7.53397e-05
-0.000475392
0.000219919
0.000666948
-0.000259462
0.000485826
-8.81681e-05
-0.00263841
0.00232025
0.000762928
4.0166e-05
-0.00444915
0.00184647
-6.87676e-05
-0.00530466
0.00133
0.000278142
-0.00277392
0.00446946
-0.00320889
-0.00379286
-0.0043018
0.00320023
-0.000537652
-0.00113534
0.00283702
0.000194934
0.00259352
0.000741478
-0.000692706
0.00242568
0.00251706
-0.00147864
0.00132378
-0.00153474
0.00220312
0.000433119
0.00138751
0.00105353
-0.000419761
-0.000697852
0.00224387
0.00234725
-0.00192919
-0.00127449
0.00273736
-0.000746559
0.00233098
0.00415254
-0.0037914
4.47477e-05
0.00159814
0.00288554
-0.000294958
0.00022195
0.000742478
-0.000620345
0.00215682
0.00157079
0.000640934
0.00136363
0.00152733
0.000155147
0.00128169
-0.00084711
5.12745e-05
-0.000274936
0.00209726
-0.000303742
0.000765393
0.00176256
-0.000646254
0.00128041
-0.000561754
0.00134277
0.00128231
-0.00119376
-0.000151012
0.00139112
0.000562479
-0.000231988
0.00147188
0.000636428
-0.000424198
0.0014897
0.000715198
-0.000436051
0.000789273
-0.000466266
0.000669426
0.000496994
0.000184277
-0.000364829
-0.000428389
-0.00122675
0.000167152
-0.000645201
-0.000614695
-0.000446335
0.000250411
-0.000416371
-0.000598957
0.00023229
-0.000282931
0.000205872
0.000114171
0.000380358
7.11901e-05
-0.00156405
0.000829325
0.000178594
-3.90811e-05
0.000224661
0.00011142
-2.00076e-05
-0.000137501
0.00124862
-8.75268e-05
-0.000686512
2.39467e-05
-0.00062928
-0.00134301
-9.19705e-06
-0.000383307
-0.00135722
-4.22572e-06
-6.95862e-05
-0.00148423
-4.359e-06
0.000242324
-0.000934919
-0.000527409
-1.18221e-05
-1.03038e-05
0.000228638
-0.0017449
-0.000232651
0.000813831
-0.000515319
0.000794462
-0.000920607
-0.00183644
0.000496343
-0.00175149
-0.000171421
-0.00144517
0.00120531
-0.000229663
-0.00155953
-0.00109797
0.00162069
-0.000408548
-0.000356632
-0.000634737
0.00019489
0.00169427
-0.000148788
-0.00122652
0.000342983
0.00150851
-0.000430196
-0.00314778
0.0018423
0.00136047
-0.00283261
-0.000417706
-0.000745141
-0.00325051
-0.00102693
-0.00394809
0.00228052
-0.000530089
-0.00176213
-0.00293972
0.00169835
-0.000945016
-0.00153916
0.000757712
-0.00515442
-0.00150402
0.00217881
-0.00585555
2.74506e-05
0.00326482
-0.00370919
-0.00528637
-0.00165646
0.00479525
0.00125149
-0.00102262
-0.00145722
-7.95341e-05
0.00308341
-0.000295855
0.00258127
0.00175617
0.00169888
0.00129624
0.00142963
0.000783159
0.000933659
-0.000590179
0.000571133
0.00251575
-0.000519458
0.00462883
0.00196401
-0.0025372
-0.00154084
0.00234191
7.97393e-05
0.00131575
0.00232653
-0.0017879
0.000486967
0.000646656
0.0007554
0.000181913
-0.000269504
0.000700605
0.00165497
-0.00130414
-0.000405008
0.00160273
0.00199883
-0.000187086
-0.00271428
0.00131861
0.00232434
-0.000342723
0.00287461
0.000306688
-0.00153514
0.00247648
0.00130472
0.000628512
0.00123728
-0.00058795
0.000419405
0.000509123
5.10796e-05
0.000257676
0.00110108
0.00159279
-0.000766279
0.00137116
0.000325672
0.000784407
0.000891041
-0.0011959
0.000891654
0.0019339
0.000816893
-0.000346028
0.000760818
0.000541357
0.00100598
-9.87479e-06
-0.000973923
0.000738585
-1.34484e-05
0.000258749
0.000525352
0.000222746
-0.00105247
0.000290819
0.0014549
-0.000937869
-3.7967e-06
0.00134677
-0.000127734
0.000231245
0.00135764
6.59035e-05
-8.1335e-05
-4.37932e-05
-0.000382708
-0.000189572
-0.00125648
-0.000632261
-0.0012212
-0.000645768
0.000277801
-0.00046003
-0.000411534
-0.000627588
-0.000215549
-0.00069802
2.22516e-06
-0.00019542
-0.000150386
-0.000215961
-0.000485128
-6.11432e-05
0.000764281
-0.00175569
0.000823972
-0.00182959
-0.000919528
0.000507819
0.00079164
-0.00194814
-0.00122168
0.000548248
-0.00101088
0.000739321
8.03278e-06
-0.000907936
-0.000843424
0.000732362
-0.000906532
0.000756797
-0.00200144
1.03879e-05
0.00197517
-0.00138424
-0.00108065
8.95601e-07
0.000462352
-0.000725082
-0.000263025
-0.000582123
-0.000120397
-8.17523e-05
5.90995e-05
-0.00169891
0.000371197
0.00125413
0.000198041
0.000629779
-0.00189258
0.00118526
0.00124536
-0.000339964
0.00181326
-7.76867e-05
0.0015836
0.00210082
0.000127022
0.00112347
0.00208202
3.20509e-05
-0.000862785
0.0005759
0.00126722
0.00014239
0.00138014
0.000835724
0.00212629
0.00172604
-0.00189777
-0.00147292
0.00212054
0.00188362
-0.000406628
-0.000879884
-0.000422348
-0.000990457
-6.60413e-05
0.000806761
-0.000631025
-0.00134619
-0.00100147
-0.00118344
-0.00249936
0.00107425
0.00100947
3.49678e-05
-0.000811717
-0.00188793
0.000346368
0.00226928
-0.000693668
-0.000828873
-0.0001822
-0.000118285
-0.000833497
-0.000416621
0.000637643
0.00018959
0.000157398
-0.00102797
0.00133335
0.000158309
-0.000493117
-0.000864578
0.000348624
-2.05485e-05
-0.000895106
0.00021494
-0.000689525
0.000138648
-1.596e-05
0.000665005
-0.000889879
-0.00132496
0.000859338
8.52223e-05
-0.000149733
0.00175826
-0.000172858
-0.00132661
-0.000174352
0.00162615
-0.000172208
0.000648626
0.000669164
0.000363831
0.00102839
-0.000437287
-0.000523382
5.10073e-05
0.000956985
0.000751373
-0.000354019
0.00126299
0.000918638
-0.00200427
-0.00042454
-0.000628492
0.00233396
0.000367708
-0.00227093
-0.00017653
5.06199e-06
0.000261301
-0.00154104
0.000162861
-0.000185406
-0.000884786
-3.00865e-05
0.000128541
-0.00122468
-0.000196845
-0.000219606
-8.00807e-05
0.000239905
-0.00108391
-0.00140125
3.87601e-05
-0.00136146
-0.000129587
0.000160655
-0.00033457
-0.000812769
-0.000102999
-0.000112545
-0.000940373
9.84886e-05
-0.000623054
0.000105605
-4.00173e-05
0.000652335
-0.000742066
-0.001336
0.000801824
0.000103722
-0.000161699
0.00135737
0.000280862
-0.00128648
-0.000248741
0.00131763
4.38437e-05
-0.000110879
0.000605145
-0.00086557
0.000808256
0.000767993
0.000886645
-0.000236681
-6.38261e-05
1.77873e-05
-7.85766e-05
0.000865391
-0.000167239
-0.000812253
3.55199e-05
0.000626875
-4.1568e-05
0.000101107
4.40769e-05
-0.000144781
0.000443278
0.000282266
-0.000368272
0.000299824
0.000322126
-0.000210967
0.00089356
3.64337e-05
-0.00225179
0.000311362
0.0025345
0.000298525
0.000373714
0.000674183
-0.00103528
0.000793498
-0.000351903
0.000969837
0.000351086
0.000143754
-0.000274037
0.000491008
0.00210528
-0.00135368
0.00057082
-0.000564514
-0.00103485
0.00142166
-0.000392319
0.0005754
0.00168107
0.000204956
-0.00270848
0.00219761
0.00032444
0.0018665
-0.00290154
0.00127657
0.000795115
-0.00127268
0.00240346
-0.00230944
-0.00144739
0.00151248
-7.21749e-05
-0.00136758
0.0025307
-0.000529973
0.00234158
-0.000424822
0.00156938
0.00164046
-8.98164e-05
-0.00077889
0.000882702
0.000707421
0.00122313
-4.60081e-05
0.00117889
0.0010374
1.776e-05
-0.00359858
0.00249734
1.64589e-05
-0.000142235
0.00112894
0.000107066
-0.001063
-0.000156739
0.0020163
-0.00135825
0.00047148
-0.000865156
0.0019832
0.000817588
-0.00134536
-0.00123863
0.00090126
-0.00163631
-0.000338398
0.00143101
-0.00154881
-0.0011224
-0.000396155
0.00170429
-0.00127969
-0.000215615
0.00155907
-0.000576041
-0.000198567
0.000391834
0.00028622
0.000819386
-0.000218159
-4.58963e-05
-0.000665545
0.000123864
0.000609534
0.00146157
-0.000315006
-0.00138539
-0.000427037
-0.000314803
-0.000441859
0.000728841
-0.00135214
-0.00029884
-0.000343772
-0.00121074
-0.000263656
-0.00019336
0.000400363
-0.000985099
-0.000278232
-0.00034803
-0.00132588
-0.000236064
-0.00117662
-0.0012798
-0.000149487
-0.000342313
-0.00175197
-0.000631565
0.00168803
0.000208304
-0.00209958
-0.00013926
-0.00110336
0.00032286
0.00155925
-0.000367695
-0.00151383
-0.000781211
-0.000795828
-0.000242526
-0.00016685
-0.000596936
7.47957e-05
-0.000125869
-0.00103087
-0.000247119
0.00123702
-0.00369541
0.00252348
-4.50138e-05
-0.00483706
-0.000588553
0.00177438
-0.00460524
0.0016672
-0.00194469
-1.26719e-06
-0.00102025
-0.00207374
0.00057928
4.99965e-05
-0.000500863
0.00181477
-0.00145106
0.00166187
0.00163918
2.45957e-05
-0.000223356
0.000483422
0.000604805
0.000795586
0.00168061
0.00177169
-6.76739e-05
0.000840591
0.00138935
-0.000928062