/*--------------------------------*- C++ -*----------------------------------*\
  =========                 |
  \\      /  F ield         | OpenFOAM: The Open Source CFD Toolbox
   \\    /   O peration     | Website:  https://openfoam.org
    \\  /    A nd           | Version:  7
     \\/     M anipulation  |
\*---------------------------------------------------------------------------*/
FoamFile
{
    version     2.0;
    format      ascii;
    class       volVectorField;
    location    "18.8";
    object      U;
}
// * * * * * * * * * * * * * * * * * * * * * * * * * * * * * * * * * * * * * //

dimensions      [0 1 -1 0 0 0 0];

internalField   nonuniform List<vector> 
15191
(
(-0.0224412 0.226035 -0.138913)
(-0.0479008 0.0831493 0.0582475)
(0.0183349 -0.388909 0.172435)
(-0.251014 -0.160979 -0.0706574)
(-0.299696 0.224277 0.028857)
(-0.26952 0.350965 -0.0641083)
(-0.338331 -0.00615694 -0.0735199)
(-0.24271 0.0521775 -0.339552)
(-0.197798 0.189841 -0.145425)
(-0.145181 0.0636247 -0.111675)
(-0.108785 -0.182465 -0.110005)
(-0.0559692 -0.0824068 -0.210619)
(-0.066622 -0.00497913 -0.222389)
(-0.0124157 0.0201004 -0.241239)
(0.0128993 0.0473657 -0.296318)
(0.01472 0.0205141 -0.236995)
(0.0157672 0.00540452 -0.233269)
(0.0157676 0.0107465 -0.236072)
(0.0115719 0.0118693 -0.245629)
(0.00969958 0.0144839 -0.244655)
(0.00697542 0.0194485 -0.233764)
(0.00392947 0.0251072 -0.217021)
(0.0242096 0.0270182 -0.209954)
(0.00775219 0.00435924 -0.15077)
(0.0046316 -0.00400115 -0.148747)
(0.0149221 -0.0213715 -0.234619)
(0.0164451 0.00065419 -0.235882)
(0.0170837 -0.00103935 -0.236491)
(0.00730893 0.00106104 -0.226072)
(0.00946581 0.000696439 -0.221465)
(-0.00041247 0.000110677 -0.204823)
(-0.000542856 -0.00116487 -0.209322)
(-0.000449597 0.000770266 -0.208704)
(-0.000918858 -0.000807472 -0.209267)
(-0.00183834 0.00104908 -0.208183)
(-0.00387398 5.41011e-05 -0.2095)
(-0.00559354 4.816e-05 -0.208416)
(-0.00188368 -0.00168188 -0.200795)
(-0.0012465 0.00055141 -0.204179)
(0.00807103 0.000824968 -0.221444)
(0.00714899 0.00387553 -0.222192)
(0.00584907 0.00462983 -0.208115)
(0.00678878 0.00326762 -0.2063)
(-0.000131032 0.0018928 -0.203639)
(-0.000702872 0.000104084 -0.205951)
(-0.00186145 0.000918121 -0.205808)
(-0.000401175 0.000996881 -0.204374)
(0.000674509 0.00123389 -0.204143)
(7.07167e-06 0.000462952 -0.204681)
(-0.000989257 0.00150567 -0.204229)
(0.000778154 0.00310738 -0.198993)
(0.00290277 0.00639131 -0.204231)
(0.00652881 0.00870255 -0.221848)
(0.00952513 0.00715986 -0.225385)
(0.00511094 0.00646907 -0.238683)
(0.005258 0.0118778 -0.224309)
(0.00165513 0.00831899 -0.206311)
(0.00380058 0.00483915 -0.201549)
(-0.000554623 0.00207895 -0.201878)
(-0.000281314 -9.04749e-05 -0.203401)
(-0.0011735 0.000731716 -0.202594)
(-0.0016649 0.00147598 -0.20116)
(-0.00241554 -0.000788826 -0.19949)
(-0.00142252 -0.00497362 -0.203174)
(-0.00108962 -0.00412931 -0.204326)
(-0.00469386 -0.0012032 -0.193829)
(0.000280922 0.00854335 -0.202856)
(-0.00168583 0.010142 -0.205197)
(0.00107479 0.00896063 -0.206594)
(0.000465469 0.00827192 -0.206518)
(-0.000384128 0.0293646 -0.216155)
(0.00014226 0.0300727 -0.215197)
(-0.0250566 0.0278784 -0.211877)
(-0.0184637 0.0318242 -0.101246)
(-0.0174799 -0.0320946 -0.117336)
(0.0255445 -0.0276774 -0.209844)
(0.009903 -0.0142504 -0.244681)
(0.0114313 -0.0107889 -0.245192)
(0.0154495 -0.0101055 -0.236053)
(0.0154761 -0.00490275 -0.232888)
(0.00723495 -0.00370935 -0.221986)
(0.00791359 -0.000731284 -0.221426)
(-0.00115345 -0.000460343 -0.204359)
(-0.00073147 -0.00036784 -0.208827)
(-0.000949077 0.000944295 -0.209193)
(-0.00124882 -0.000661978 -0.209442)
(-0.00102544 0.000553246 -0.209124)
(-0.00513244 0.000115916 -0.214397)
(-0.00856706 -0.00074875 -0.21801)
(-0.0156253 0.00319631 -0.221747)
(-0.0262958 -0.0201524 -0.233425)
(-0.0332681 -0.0112703 -0.22617)
(-0.017943 -0.00489104 -0.236208)
(-0.0153206 -0.00222153 -0.263427)
(-0.0174492 0.00312889 -0.254367)
(-0.0139694 -0.00112549 -0.250616)
(-0.0157923 -0.00364163 -0.241478)
(-0.0199229 -0.000752427 -0.233096)
(-0.016912 -0.011569 -0.238352)
(-0.013223 -0.00947994 -0.263015)
(-0.0156862 -0.00167146 -0.248715)
(-0.0150391 -0.00364874 -0.231934)
(-0.0120354 -0.0103654 -0.258957)
(-0.0140472 -0.00479467 -0.245404)
(-0.0187178 -0.00257529 -0.233471)
(-0.0146153 -0.0075211 -0.237723)
(-0.00920891 -0.00887199 -0.229782)
(-0.00975786 -0.0128002 -0.254117)
(-0.011976 -0.00903764 -0.240436)
(-0.0219252 -0.00750689 -0.229937)
(-0.00969994 -0.0194376 -0.230915)
(-0.00570281 -0.0135774 -0.245667)
(-0.00562402 -0.00604425 -0.261317)
(-0.0174004 -0.0143201 -0.236339)
(-0.0249948 -0.0183466 -0.216583)
(-0.0132864 -0.0315586 -0.223598)
(-0.0162124 -0.0221504 -0.222645)
(-0.00556069 -0.0130517 -0.244788)
(-0.0109216 -0.0123488 -0.247142)
(-0.00960164 -0.0137412 -0.257664)
(-0.004673 -0.015645 -0.230729)
(-0.00278671 -0.0158368 -0.244663)
(-0.00955532 -0.0133191 -0.257815)
(-0.0120557 -0.0171769 -0.234213)
(-0.00233537 -0.0198313 -0.229717)
(-0.00385676 -0.0150187 -0.235572)
(0.000279629 -0.0155275 -0.251651)
(-0.00249595 -0.0152335 -0.253221)
(-0.00677941 -0.0196348 -0.23182)
(-0.00127384 -0.0240097 -0.219697)
(0.00523146 -0.019008 -0.230502)
(0.000905373 -0.0156079 -0.253036)
(-0.00210613 -0.0167086 -0.24735)
(0.00129161 -0.0141081 -0.240947)
(0.00480673 -0.015795 -0.23398)
(0.00174507 -0.0197961 -0.225974)
(0.0119385 -0.0168241 -0.23153)
(0.00945086 -0.0134423 -0.254915)
(0.00304012 -0.0156598 -0.241709)
(0.00475759 -0.0146344 -0.225939)
(0.0105305 -0.0119755 -0.25193)
(0.00596754 -0.0136231 -0.239185)
(0.00347807 -0.0179028 -0.227149)
(0.00806271 -0.0138122 -0.231112)
(0.00971392 -0.0082796 -0.223803)
(0.0130938 -0.00899272 -0.246848)
(0.0100389 -0.0111625 -0.234777)
(0.00795649 -0.0196704 -0.221086)
(0.0206036 -0.00754866 -0.221844)
(0.0112924 -0.00893369 -0.232592)
(0.00906247 -0.0130478 -0.246924)
(0.00870905 -0.00741129 -0.220558)
(0.0147529 -0.0082957 -0.232214)
(0.018124 -0.000663549 -0.220977)
(0.0138031 -0.00499047 -0.240046)
(0.0110694 -0.0104465 -0.246278)
(0.0150541 -0.00704726 -0.223286)
(0.0128947 -0.00590429 -0.227466)
(0.00935091 -0.00368999 -0.241448)
(0.0115303 -0.000373091 -0.240414)
(0.0101279 -0.00245695 -0.245355)
(0.0135559 -0.00573683 -0.228145)
(0.0131666 0.00309234 -0.235869)
(0.0158211 0.00256229 -0.244153)
(0.0143142 -0.000578647 -0.252191)
(0.0176949 -0.00597568 -0.229685)
(0.0225843 0.00127332 -0.218051)
(0.0180546 0.00774051 -0.230903)
(0.0133571 0.00230389 -0.251325)
(0.0142514 -0.00060302 -0.248787)
(0.0132947 0.00139988 -0.234258)
(0.0174404 0.000920484 -0.21939)
(0.015687 0.0156532 -0.239399)
(-0.0129283 0.0172335 -0.235588)
(-0.0102374 0.0134476 -0.258492)
(-0.00364288 0.0163366 -0.247024)
(-0.00546522 0.0152322 -0.230476)
(-0.011479 0.0126499 -0.258256)
(-0.00682034 0.0141556 -0.244567)
(-0.00474414 0.0186374 -0.235184)
(-0.00850954 0.0144497 -0.238606)
(-0.0106244 0.00895876 -0.231876)
(-0.0134229 0.00971576 -0.255075)
(-0.0103973 0.0116802 -0.242407)
(-0.00846599 0.0212644 -0.231356)
(-0.0204389 0.00892542 -0.232723)
(-0.0142858 0.00469622 -0.246539)
(-0.00673496 0.00446288 -0.263433)
(-0.014622 0.0161178 -0.238897)
(-0.0189169 0.0240368 -0.217301)
(-0.0323736 0.011622 -0.226159)
(-0.0217977 0.015196 -0.223445)
(-0.012361 0.00517182 -0.247071)
(-0.0123828 0.00973853 -0.24839)
(-0.0133812 0.00938824 -0.260619)
(-0.0156423 0.00287463 -0.23272)
(-0.0154925 0.00126478 -0.249252)
(-0.0127608 0.00872882 -0.261502)
(-0.0170151 0.0124107 -0.240757)
(-0.0191881 0.000519534 -0.232189)
(-0.0145865 0.00238625 -0.246167)
(-0.0172206 -0.0012369 -0.255661)
(-0.0156887 0.00369025 -0.264269)
(-0.018181 0.00633039 -0.236571)
(-0.0256033 0.000457664 -0.231518)
(-0.0359125 0.000621969 -0.223977)
(-0.0338632 0.0132422 -0.226467)
(-0.026421 0.0225017 -0.234062)
(-0.0157296 -0.00286658 -0.222121)
(-0.025111 0.00084075 -0.218868)
(-0.0283898 0.0048703 -0.217784)
(-0.0265693 0.0108417 -0.218155)
(-0.0359349 0.0206858 -0.226297)
(-0.0226294 0.0265478 -0.232088)
(-0.0133065 0.00161198 -0.221769)
(-0.0290594 0.00628205 -0.221002)
(-0.0318748 0.0183739 -0.219827)
(-0.0202369 0.0307179 -0.228929)
(-0.0103917 0.00113011 -0.219783)
(-0.0211468 0.011946 -0.217583)
(-0.0224314 0.0132488 -0.219388)
(-0.0363249 0.0161386 -0.223148)
(-0.0371379 0.0211716 -0.23679)
(-0.0266358 0.0284144 -0.230139)
(-0.0195517 0.0330695 -0.225693)
(-0.0135921 0.0180745 -0.223039)
(-0.0140129 0.00633448 -0.213931)
(-0.0205001 0.0162853 -0.217185)
(-0.0331914 0.0239637 -0.216675)
(-0.0233304 0.0350191 -0.216031)
(-0.0157529 0.0213177 -0.216215)
(-0.00810004 0.00976359 -0.216488)
(-0.0307814 0.0190965 -0.223572)
(-0.0153049 0.0244757 -0.216899)
(-0.00835797 0.0144309 -0.21852)
(-0.025597 0.0180352 -0.22212)
(-0.0201965 0.0309845 -0.21733)
(-0.0112229 0.0245662 -0.216784)
(-0.00412071 0.0111565 -0.217806)
(-0.0334996 0.0207407 -0.227374)
(-0.0193893 0.0314409 -0.21801)
(-0.00810057 0.0281131 -0.218099)
(-0.00268096 0.0132165 -0.217884)
(-0.0282722 0.0225988 -0.229107)
(-0.02093 0.0338711 -0.222909)
(-0.00256777 0.00981032 -0.214785)
(-0.00222366 0.00736163 -0.209858)
(-0.00362894 0.00740435 -0.212042)
(-0.00492098 0.00764109 -0.215992)
(-0.00303124 0.00611038 -0.20864)
(-0.00521864 0.00753169 -0.210722)
(-0.00717278 0.00786145 -0.213976)
(-0.00398733 0.00568982 -0.20893)
(-0.00711139 0.00811521 -0.211505)
(-0.00398182 0.00389466 -0.209547)
(-0.00778139 0.00665039 -0.211236)
(-0.00742723 0.00703598 -0.216341)
(-0.00535487 0.00661288 -0.212188)
(-0.00418473 0.00335323 -0.208838)
(-0.00206507 0.00262369 -0.207689)
(-0.00189873 0.00140355 -0.206624)
(-0.00306655 0.00197078 -0.207542)
(-0.000443996 0.000528849 -0.204024)
(-0.000274724 -0.00115565 -0.202819)
(-0.000543129 -0.00156706 -0.203606)
(-0.00103376 -0.00118516 -0.20483)
(6.59235e-05 -0.000223638 -0.205113)
(0.000387026 -0.000911792 -0.204506)
(-0.000497531 -0.000806517 -0.20481)
(-0.00176 -0.000892285 -0.206324)
(-0.00063621 -9.35352e-05 -0.206437)
(-0.000144269 0.000289128 -0.205748)
(-0.00232898 0.00103873 -0.205409)
(-0.00545073 -5.58894e-05 -0.20873)
(-0.00381282 -3.0479e-05 -0.20984)
(-0.00178756 -0.00106529 -0.208464)
(-0.000973522 0.000760421 -0.209506)
(-0.0074042 0.000678866 -0.215008)
(-0.00678713 0.00100294 -0.220451)
(-0.00965437 0.00100993 -0.219569)
(-0.00719422 0.00127859 -0.215185)
(-0.00732493 0.00257002 -0.216437)
(-0.00752283 0.00370363 -0.218538)
(-0.00598202 0.00208908 -0.2126)
(-0.00754617 0.00340634 -0.213732)
(-0.00682195 0.00547231 -0.215401)
(-0.0136821 0.00865994 -0.219646)
(-0.00817182 0.00448462 -0.211858)
(-0.00401635 0.00325474 -0.21032)
(-0.00307651 0.00135404 -0.208028)
(-0.00191542 0.00109601 -0.207544)
(-0.00215577 0.00218756 -0.20883)
(-0.00559046 0.00260997 -0.209699)
(-0.0043851 0.000874333 -0.210048)
(-0.00291015 0.00135583 -0.209503)
(-0.00184364 0.000490765 -0.203926)
(-0.00199765 -0.00085701 -0.193482)
(-0.00778362 0.0040374 -0.195458)
(-0.0065162 0.00286772 -0.201601)
(-0.00920555 0.00514455 -0.202271)
(-0.0134937 0.0071684 -0.201478)
(-0.0159421 0.0158622 -0.202963)
(-0.0224063 0.0202091 -0.199189)
(-0.0221733 0.0218695 -0.195692)
(-0.0325509 0.0211894 -0.200838)
(-0.0218249 0.00770541 -0.198582)
(-0.0255459 0.0136982 -0.182656)
(-0.0235531 0.0165663 -0.162932)
(-0.018654 0.0172533 -0.164703)
(-0.0216399 0.0164738 -0.150977)
(-0.018921 0.0144267 -0.136032)
(-0.0165616 0.0133559 -0.117272)
(-0.0148043 0.012392 -0.113233)
(-0.016532 0.00768048 -0.0992616)
(-0.0136287 0.00929144 -0.0781982)
(-0.00225159 0.0201139 -0.0704221)
(-0.0142752 0.00685169 -0.0434825)
(-0.00052568 -0.0217409 -0.0534297)
(-0.0206496 -0.0146042 -0.0373072)
(-0.0365248 0.00368755 -0.0374021)
(-0.00985699 0.0490119 -0.105241)
(0.00460108 0.065237 -0.0918839)
(0.0324528 0.0757896 -0.151318)
(0.027269 0.0384691 -0.0570084)
(0.00587267 0.070282 0.0195362)
(-0.0691799 0.0318282 -0.047533)
(0.0396899 -0.027353 0.0130392)
(0.0583855 -0.0458015 -0.0747921)
(-0.060793 0.0832647 -0.155451)
(-0.0980923 0.0913278 -0.205278)
(-0.102623 0.149201 -0.372589)
(-0.0310139 0.113982 -0.244989)
(0.053807 -0.150218 -0.206218)
(0.0104728 -0.0438968 -0.101961)
(0.0219275 -0.00938516 -0.0591466)
(-0.066434 -0.0789839 -0.119807)
(-0.0480772 -0.0567593 -0.0717172)
(-0.0197016 -0.00719924 -0.0814)
(-0.0475993 -0.021395 -0.0617062)
(-0.0316153 0.0286701 -0.11067)
(-0.0074047 0.0312943 -0.130497)
(-0.0227178 0.0221273 -0.127198)
(-0.0150568 0.0238864 -0.097671)
(-0.0176338 0.0101632 -0.0938313)
(-0.00895173 0.00937136 -0.112074)
(-0.029239 0.0146774 -0.0965872)
(-0.0398711 -0.00370986 -0.099819)
(-0.0345579 0.00756167 -0.0976485)
(-0.0471511 -0.0317184 -0.0848651)
(-0.0385786 -0.0582484 -0.0443871)
(-0.0602834 -0.0318315 -0.0847924)
(-0.0746408 -0.0327481 -0.00934748)
(-0.0348726 -0.0236597 0.0561775)
(-0.110538 -0.0308227 -0.0772485)
(-0.144261 -0.074523 -0.241182)
(-0.0397156 -0.0868835 -0.104878)
(-0.0814505 -0.141549 -0.142604)
(-0.0755571 -0.113406 -0.147739)
(-0.0562859 -0.0975842 -0.143703)
(-0.0347749 -0.0464187 -0.0814076)
(-0.0540447 -0.0106376 -0.0603716)
(-0.0529013 -0.0509223 -0.0620363)
(-0.0338158 -0.0746027 -0.11165)
(-0.0531825 -0.0288612 -0.0943859)
(-0.0640679 -0.0758196 -0.0640729)
(-0.133102 -0.0662162 -0.1503)
(-0.153459 -0.104286 -0.237138)
(-0.0626215 -0.00745537 -0.127371)
(-0.0767375 -0.10112 -0.135306)
(-0.0586654 0.0550463 -0.0877546)
(-0.195266 -0.0724651 -0.148061)
(-0.0701055 -0.0912118 -0.11634)
(-0.080668 0.0109064 -0.417492)
(-0.13101 0.0861251 -0.285629)
(-0.0210174 0.20832 0.00416412)
(-0.0461112 -0.0143875 -0.0448755)
(-0.0592755 -0.00757683 0.0856926)
(-0.0386708 -0.0169035 -0.214025)
(-0.142886 -0.190558 0.0732497)
(-0.121072 -0.0700946 -0.13682)
(-0.171201 -0.086592 -0.19063)
(-0.139892 -0.00611544 -0.239487)
(-0.126318 -0.0478975 -0.153988)
(0.00209862 -0.0762207 -0.0995239)
(-0.0739509 0.0954454 -0.0878615)
(-0.143626 -0.0490537 -0.195958)
(-0.13346 -0.0608999 -0.234548)
(-0.0989077 -0.0352634 -0.129115)
(-0.031717 0.0494483 -0.0881486)
(-0.0846881 -0.00418422 -0.140139)
(-0.0203312 -0.0152775 -0.0519735)
(-0.0963087 -0.0149762 0.00780048)
(-0.0391606 0.0472673 0.0627773)
(0.00945323 -0.00813536 0.0881365)
(-0.0712858 0.0167501 -0.0181334)
(-0.0997083 -0.0530234 -0.0460103)
(-0.0894969 -0.0592122 -0.0847993)
(-0.0718705 -0.0344328 -0.202526)
(-0.124794 -0.0215135 -0.339217)
(-0.0792292 -0.0420913 -0.211593)
(-0.104265 -0.106534 -0.126033)
(-0.0674997 -0.0277861 -0.116369)
(-0.0282614 -0.00998706 -0.127185)
(-0.0125152 -0.054889 -0.0471963)
(0.0145869 0.0567761 -0.0104794)
(-0.0171562 0.0284644 -0.0883605)
(-0.0105258 0.0637484 -0.141346)
(-0.0244909 0.0621624 -0.138349)
(-0.0450879 0.0267411 -0.0879209)
(-0.0276264 0.00132342 -0.0471072)
(-0.0186518 0.0148737 -0.0940851)
(-0.00554478 0.0390346 -0.0796232)
(-0.0256784 0.00922997 -0.00390054)
(-0.0531496 -0.0205383 -0.0685307)
(-0.0453923 0.0102656 -0.0952988)
(-0.023514 0.00897552 -0.0453673)
(-0.00245955 -0.0272679 -0.0595969)
(-0.0072088 -0.00605035 -0.066141)
(-0.0144524 -0.00733078 -0.099997)
(-0.0273084 -0.0150548 -0.0800269)
(-0.0222467 -0.00206466 -0.0697922)
(-0.0337873 -0.0099711 -0.0632005)
(-0.0211422 -0.0053655 -0.0355451)
(-0.0211432 0.00214102 -0.0675358)
(-0.0190882 0.00396044 -0.0806264)
(-0.0190019 0.00110757 -0.0970741)
(-0.0264739 -0.00661505 -0.0876076)
(-0.028034 -0.00672391 -0.0755188)
(-0.0281577 -0.014196 -0.083659)
(-0.0322815 -0.0123552 -0.0825523)
(-0.0283263 -0.0130714 -0.0996692)
(-0.0280347 -0.0120136 -0.0920958)
(-0.0255691 -0.0101803 -0.0939968)
(-0.0270357 -0.00442225 -0.0939559)
(-0.025003 0.000281984 -0.103956)
(-0.0228506 0.00152855 -0.0987625)
(-0.0208207 0.00669131 -0.102447)
(-0.0203745 0.00903875 -0.119713)
(-0.0193243 0.0102024 -0.118466)
(-0.0198902 0.0114907 -0.135872)
(-0.0213929 0.0151228 -0.15188)
(-0.0210852 0.0125297 -0.167335)
(-0.0228004 0.0125593 -0.148269)
(-0.0217982 0.0107187 -0.132288)
(-0.0212197 0.0092943 -0.127289)
(-0.0227253 0.00601746 -0.115567)
(-0.0247646 0.000523553 -0.113212)
(-0.0239851 0.00605027 -0.127039)
(-0.0222539 0.010892 -0.138251)
(-0.0240822 0.0147716 -0.140135)
(-0.0259965 0.0149494 -0.160235)
(-0.0204536 0.0189832 -0.161964)
(-0.0240212 0.00955415 -0.181052)
(-0.0185846 0.0173794 -0.177885)
(-0.0213089 0.0164269 -0.195715)
(-0.021076 0.0113978 -0.210614)
(-0.0159262 0.00659889 -0.2342)
(-0.0104249 0.00534853 -0.247533)
(-0.0239852 0.00392177 -0.216293)
(-0.0236578 0.0120872 -0.198174)
(-0.0137259 0.0197126 -0.173212)
(-0.018228 0.0228894 -0.202972)
(-0.0308538 0.0110053 -0.209962)
(-0.0267303 0.00905748 -0.176078)
(-0.0255868 0.0105589 -0.188479)
(-0.0261801 0.00912378 -0.186654)
(-0.0292845 0.00956925 -0.173205)
(-0.0269536 0.0077998 -0.151431)
(-0.0254224 0.00662266 -0.138932)
(-0.0241131 0.00247534 -0.126006)
(-0.0232795 0.000643948 -0.125095)
(-0.0254063 -0.00385598 -0.118762)
(-0.0247955 -0.00990639 -0.103846)
(-0.0254639 -0.00542834 -0.10508)
(-0.0208703 -0.0025028 -0.108042)
(-0.017927 0.00100298 -0.109342)
(-0.0143293 -0.00836247 -0.0958334)
(-0.0237844 -0.0194858 -0.0668271)
(-0.0249423 0.00911612 -0.0799407)
(-0.0187119 0.00925225 -0.0500923)
(-0.00439072 -0.00979478 -0.066626)
(-0.009274 -0.00813018 -0.00993559)
(-0.0262647 -0.0341837 -0.0652214)
(-0.0532669 0.00480095 -0.0458688)
(-0.0988116 -0.0316724 -0.224966)
(-0.0319309 -0.0846644 -0.199449)
(-0.0850743 -0.104044 -0.0287807)
(-0.247356 -0.0651271 -0.337282)
(-0.147166 -0.198352 -0.254211)
(-0.120765 -0.143866 -0.230838)
(-0.0145801 -0.0798128 -0.175987)
(-0.103332 -0.182032 0.162756)
(-0.0819297 -0.165867 0.172946)
(-0.138766 -0.182067 -0.0311487)
(-0.0671717 -0.0785604 -0.0473227)
(-0.0373536 -0.0378893 -0.110195)
(-0.0294336 -0.0218728 -0.0946007)
(-0.0267234 -0.00954545 -0.112971)
(-0.0351351 0.0157449 -0.0986519)
(-0.0516498 -0.0168898 -0.117603)
(-0.0227769 -0.0105836 -0.0134568)
(0.0138823 -0.0667475 -0.0181818)
(-0.0208004 0.0285882 -0.0149078)
(-0.0416362 -0.0353309 -0.109892)
(-0.0334089 -0.0133558 -0.0975264)
(-0.0325152 -0.0240555 -0.115126)
(-0.0350624 -0.00669881 -0.102663)
(-0.0295896 -0.00948177 -0.0806707)
(-0.0283044 -0.069811 -0.120654)
(-0.0135656 -0.0297856 -0.109155)
(-0.0141753 -0.0143504 -0.0895672)
(-0.0180172 -0.0205922 -0.10548)
(-0.021364 0.0153161 -0.113982)
(-0.0194425 -0.00675212 -0.099471)
(-0.0282262 -0.0134328 -0.0864623)
(-0.0351631 -0.0207681 -0.0977037)
(-0.0416856 -0.0733306 -0.0434028)
(-0.0440416 -0.0826459 -0.109338)
(-0.0351447 -0.0730572 -0.147929)
(-0.0724427 -0.110553 -0.171659)
(-0.079655 -0.141627 -0.14495)
(-0.0981155 -0.142021 -0.159027)
(-0.0624086 -0.117987 -0.00295243)
(-0.101516 -0.171443 -0.0414801)
(-0.0988043 -0.185357 0.0501189)
(-0.112475 -0.264809 0.205887)
(-0.0960685 -0.243629 0.0518222)
(-0.114936 -0.238344 -0.0124745)
(-0.126557 -0.168828 0.220101)
(-0.0696191 -0.291047 0.281774)
(-0.0820846 -0.250304 0.311722)
(-0.106567 -0.168629 0.177598)
(-0.0856867 -0.101885 0.0634881)
(-0.0219386 -0.126858 -0.0717828)
(-0.0853846 -0.144274 -0.0772797)
(-0.122832 -0.188651 -0.0864231)
(-0.078935 -0.156295 -0.0468164)
(-0.0631765 -0.115594 -0.0457175)
(-0.154386 -0.0454733 -0.0740553)
(-0.0211345 -0.0585686 -0.0815248)
(-0.168761 -0.048938 -0.038002)
(-0.0703078 -0.180206 0.166979)
(-0.11008 -0.305384 0.294182)
(-0.0860875 -0.265975 0.0226184)
(-0.136878 -0.127508 -0.00797551)
(0.00605138 -0.0444989 0.123581)
(0.0446102 0.0128298 0.0515942)
(0.00263911 -0.0441691 -0.0656548)
(-0.00309379 -0.0365281 0.019031)
(0.0670203 0.00419481 0.0204696)
(0.0188268 -0.0108633 0.141685)
(0.0269237 -0.141761 0.164691)
(0.0326652 -0.0640628 0.235666)
(0.0592426 -0.0484416 0.46973)
(-0.00496248 -0.187999 0.563904)
(-0.0134524 -0.324379 0.70244)
(-0.0585384 -0.318713 0.532373)
(-0.121644 -0.182277 0.00348814)
(-0.12013 -0.155903 -0.0116797)
(-8.92333e-05 -0.119495 -0.259075)
(-0.0803986 -0.0865772 -0.169235)
(-0.147328 -0.161939 -0.228723)
(-0.082448 -0.166037 -0.159236)
(-0.0695201 -0.236226 -0.224328)
(-0.0529591 -0.167759 -0.139847)
(-0.0266887 -0.101109 -0.0703578)
(-0.0770871 -0.223209 -0.12189)
(-0.0697165 -0.292034 -0.144666)
(-0.0172261 -0.137927 0.0139162)
(-0.0404902 -0.280619 0.106105)
(-0.0651952 -0.195861 -0.0558106)
(-0.0488442 -0.103272 -0.0766551)
(-0.0411619 -0.097645 -0.109155)
(-0.0244473 -0.036566 -0.0879395)
(-0.0202932 -0.0185507 -0.0981168)
(-0.0265926 -0.0307538 -0.112503)
(-0.0410467 -0.0345125 -0.106221)
(-0.0280562 -0.0165643 -0.147993)
(-0.0396232 -0.0204575 -0.160751)
(-0.0374364 -0.0410271 -0.100955)
(-0.0352339 -0.0362951 -0.102378)
(-0.034544 -0.0221487 -0.0694999)
(0.00937044 -0.0514645 -0.112971)
(-0.0138788 -0.0432228 -0.0621762)
(-0.0120698 -0.00938168 0.023832)
(-0.0471344 0.00331779 -0.0846)
(-0.0428902 -9.29552e-05 -0.156958)
(-0.0315305 -0.00089713 -0.128944)
(-0.0101117 0.0156744 -0.111662)
(0.0102243 -0.013101 -0.164875)
(-0.00304154 -0.069469 -0.207308)
(-0.0188374 -0.103926 -0.210054)
(0.0653299 0.00146572 -0.0392285)
(0.0178638 -0.0942623 -0.105055)
(-0.0273827 -0.0445352 -0.112442)
(-0.0523002 -0.0955114 -0.121504)
(-0.0292956 -0.143233 -0.0895148)
(-0.0387201 -0.125279 -0.0811735)
(-0.0307281 -0.201452 0.00980983)
(-0.0578589 -0.266365 0.0428334)
(-0.0684904 -0.263371 0.0528548)
(-0.102416 -0.220521 -0.0854588)
(-0.158659 -0.184991 -0.335902)
(-0.0959364 -0.145401 -0.250827)
(-0.13086 -0.102817 -0.490479)
(-0.141943 -0.106365 -0.427085)
(-0.183279 -0.0967376 -0.333927)
(-0.145101 -0.155494 -0.421761)
(-0.160928 -0.229526 -0.404851)
(-0.108506 -0.301059 0.171438)
(-0.0499022 -0.306437 0.0933514)
(0.0210418 -0.250927 0.419557)
(-0.00928463 -0.269248 0.143599)
(-0.0920736 -0.21023 0.0368247)
(-0.0904787 -0.2993 -0.0756992)
(-0.142712 -0.175318 -0.382777)
(-0.117055 -0.176129 -0.405631)
(-0.0333917 -0.18466 -0.157519)
(-0.151297 -0.103923 0.0154113)
(-0.0882913 -0.191909 -0.0892711)
(-0.0443282 -0.22131 -0.116943)
(-0.0380579 -0.219071 -0.189151)
(-0.0358155 -0.218011 0.0144217)
(0.0320062 -0.194292 0.113897)
(-0.00234083 -0.192586 0.172101)
(0.00684813 -0.0490623 0.0255631)
(-0.0466993 -0.163926 -0.0918106)
(-0.0138238 -0.143351 -0.0968063)
(0.0231489 -0.104349 -0.0270604)
(-0.0330694 -0.10448 -0.103311)
(-0.0195536 -0.0745261 -0.168945)
(0.0029532 -0.0432588 -0.0849444)
(-0.0443837 -0.0122196 -0.0589306)
(-0.0418387 0.0156498 -0.0629205)
(-0.00181605 0.0736363 -0.203287)
(0.00941932 0.0141131 -0.161953)
(-0.0109489 -0.0147446 -0.11277)
(-0.0314153 0.00263798 -0.130537)
(-0.0429819 0.00216052 -0.158195)
(-0.0396902 0.0227292 -0.159424)
(-0.0369623 0.0439281 -0.101111)
(-0.0476765 -0.000144971 -0.0847751)
(-0.0127028 0.012257 0.0259338)
(0.0652055 -0.00328616 -0.0349135)
(-0.0190635 0.105529 -0.208387)
(0.01838 0.0943933 -0.105074)
(-0.0192851 0.0769634 -0.168509)
(0.00256051 0.0447938 -0.0881722)
(0.0280398 0.0267687 -0.0577837)
(0.0299972 -0.025619 -0.0559736)
(0.0801342 -0.0506859 -0.0888163)
(-0.0103618 -0.120013 -0.233345)
(-0.0202921 -0.157378 -0.167608)
(-0.0337069 -0.0155162 -0.0309616)
(0.0310971 -0.146043 -0.0665017)
(0.00213933 -0.150057 -0.0194583)
(-0.0216387 -0.113504 0.0230912)
(-0.000120105 -0.174344 0.100793)
(0.0185196 -0.182168 0.188431)
(0.00990152 -0.203649 0.142354)
(0.0118066 -0.217919 0.11867)
(-0.0679167 -0.172015 0.00353518)
(-0.00739695 -0.154004 0.195526)
(0.0389521 -0.103334 0.173787)
(-0.0544547 -0.113297 -0.120662)
(-0.0369919 -0.0514416 -0.0133826)
(-0.116848 -0.119089 -0.153546)
(-0.0443394 -0.214761 -0.0738442)
(-0.07143 -0.177274 0.000482645)
(-0.0867839 -0.190445 0.0140656)
(-0.0188708 -0.13198 0.00853181)
(-0.0345907 -0.0733722 -0.00977577)
(0.0213382 -0.0587639 0.0795556)
(3.54908e-05 -0.0635936 -0.0585958)
(-0.0259482 -0.0278342 -0.122181)
(-0.0265586 -0.0159747 -0.0917269)
(-0.0239778 -0.00708373 -0.116136)
(-0.0163657 0.00732003 -0.121615)
(-0.0294755 -0.0151374 -0.108819)
(-0.0227124 0.011747 -0.131721)
(-0.030687 -0.0281512 -0.147027)
(-0.0197507 -0.038136 -0.138686)
(-0.0104853 -0.110097 -0.050714)
(-0.0286054 -0.107427 -0.112269)
(-0.00643283 -0.100547 -0.10904)
(-0.0198815 -0.0296993 -0.108743)
(-0.0315107 -0.0083375 -0.15805)
(-0.0370989 0.00654285 -0.13778)
(-0.0135445 0.0169591 -0.120184)
(-0.0183704 0.00996438 -0.134009)
(-0.0184438 0.0101249 -0.116481)
(-0.016499 0.00758685 -0.118137)
(-0.0230074 0.00373321 -0.113955)
(-0.0231891 -0.00121876 -0.111191)
(-0.0256659 -0.00234128 -0.107307)
(-0.0229286 -0.00402086 -0.109483)
(-0.0262824 -0.0027285 -0.104754)
(-0.0234153 0.000951445 -0.106911)
(-0.0210296 0.0111275 -0.116914)
(-0.0210119 0.0163597 -0.118116)
(-0.0145521 0.0264629 -0.11322)
(-0.0205591 0.0206733 -0.121826)
(-0.00479642 0.0187517 -0.0534889)
(-0.00118444 0.004312 -0.0798766)
(-0.00817353 0.0132593 -0.0402969)
(0.0410591 -0.0346244 0.0197624)
(-0.0059285 -0.0917077 0.0652328)
(0.0248462 -0.0635523 0.216805)
(-0.056555 -0.0936435 0.104854)
(-0.148998 -0.217011 0.0255907)
(-0.00640491 -0.0473061 0.0236276)
(0.0247352 -0.102457 0.162004)
(-0.0787274 -0.048732 0.0207879)
(0.0190671 -0.0756568 0.0512384)
(0.0412437 -0.0959592 0.133272)
(0.0968435 -0.194101 0.0703872)
(0.107056 -0.18036 0.194521)
(0.0314262 -0.197503 0.240404)
(-0.00730835 -0.177979 0.179299)
(0.0160082 -0.243486 0.110928)
(0.0384652 -0.195797 0.137792)
(-0.0486533 -0.16295 -0.0732073)
(0.0391824 -0.0582846 -0.153764)
(0.142527 -0.03347 -0.0594332)
(0.139097 0.0298329 -0.297168)
(-0.0935688 0.0472718 -0.0237082)
(-0.09494 -0.0524317 -0.0283766)
(-0.0106096 0.119605 -0.236826)
(0.080256 0.048653 -0.087441)
(0.0233517 0.102064 -0.0299719)
(-0.0329396 0.107337 -0.105589)
(-0.0284429 0.142872 -0.0905778)
(-0.0510167 0.0956365 -0.118087)
(-0.0285983 0.0442646 -0.109801)
(0.00740244 0.0502408 -0.11321)
(-0.0146644 0.0459116 -0.0658152)
(-0.035015 0.0240158 -0.0719096)
(-0.0209127 0.0202923 -0.0978566)
(-0.027088 0.0319399 -0.111634)
(-0.0241929 0.0194496 -0.105676)
(-0.0197332 0.00805636 -0.0998957)
(-0.0289174 0.0149291 -0.0876945)
(-0.0249976 0.0382223 -0.087571)
(-0.040885 0.0970464 -0.107531)
(-0.0383569 0.123517 -0.0799973)
(-0.0296772 0.20085 0.0113915)
(-0.013544 0.141284 -0.0997202)
(-0.0466894 0.16225 -0.0896259)
(-0.0198406 0.1526 -0.171621)
(-0.0311193 0.0126457 -0.0415904)
(0.139118 0.0223987 -0.07052)
(0.139783 -0.034033 -0.302149)
(0.00765883 0.0475338 -0.350837)
(0.00359181 -0.0540871 -0.338482)
(-0.159968 -0.0988277 -0.265081)
(-0.138478 -0.140685 -0.0180859)
(-0.142489 -0.213959 0.0806481)
(-0.0308098 -0.173219 0.232586)
(0.0888993 -0.145685 0.139508)
(0.0877576 -0.207835 0.197795)
(0.0869933 -0.164473 0.0175942)
(0.0799524 -0.116041 -0.0869778)
(0.0178142 -0.116721 -0.0481193)
(0.0181073 -0.175415 -0.0243037)
(-0.01459 -0.0880445 -0.12368)
(-0.01564 -0.0614218 -0.113579)
(0.0603638 0.00830066 -0.0804882)
(0.0732902 0.0212146 0.173477)
(0.0546523 -0.0246528 0.0819481)
(0.0437547 -0.0437269 0.204095)
(0.0587239 -0.0250044 0.167487)
(0.0142485 -0.00229939 0.014329)
(0.00358178 0.0209863 -0.0158444)
(0.050643 -0.00350451 0.00753832)
(0.0487556 -0.00898879 0.110158)
(0.0175321 -0.0668656 -0.0542469)
(0.049682 -0.0528231 0.0486569)
(-0.039659 0.018657 -0.221251)
(-0.0272356 -0.000692933 -0.192425)
(0.0158157 0.00610378 -0.19627)
(-0.0274951 0.0039126 -0.177851)
(-0.0467544 0.0653459 -0.178773)
(-0.0321012 0.0110214 -0.190365)
(0.0225484 -0.0253094 -0.0575342)
(0.0192878 -0.100451 -0.0122651)
(0.0193489 0.00968611 -0.0390108)
(0.0025374 -0.0558717 -0.0750905)
(0.0851377 -0.0186618 -0.189433)
(0.0958727 -0.00371401 -0.00772932)
(0.0900709 -0.0486866 0.191311)
(-0.00595656 -0.17284 0.108912)
(-0.00320228 0.162657 0.0787088)
(-0.137358 0.132508 -0.0486783)
(-0.157914 0.0991901 -0.286184)
(-0.0575673 0.157261 -0.0835527)
(0.0363857 0.0493408 -0.163231)
(-0.0195058 0.115001 0.026396)
(0.00482217 0.147759 -0.0139388)
(0.0185136 0.0404387 0.0297914)
(0.0346352 0.141098 -0.0829674)
(0.0717944 0.0597668 -0.0933189)
(0.0878591 -0.0267556 -0.0736327)
(0.0893043 0.0211813 -0.071256)
(0.0696769 -0.0662028 -0.0857549)
(0.102843 -0.0230769 -0.143995)
(0.0608243 0.0427725 -0.0526166)
(-0.0542736 0.085335 0.0740739)
(-0.0482581 0.00489834 -0.0355698)
(0.0456605 -0.155053 -0.102555)
(0.116884 -0.161437 -0.232183)
(0.0361125 0.0161397 -0.369294)
(0.114546 0.0150794 -0.210565)
(-0.0317226 0.0227508 -0.110002)
(0.0631344 -0.0813866 -0.00895292)
(0.000984989 -0.0433204 -0.0769949)
(-0.00892274 0.0276075 -0.0214504)
(-0.0183805 0.0926779 -0.0657874)
(-0.00505753 0.105289 -0.0474403)
(-0.022647 0.0725611 -0.0683879)
(-0.0509964 0.0720423 -0.175705)
(-0.0316534 0.0761407 -0.101879)
(-0.0265842 0.0152084 -0.150476)
(-0.0155568 0.0232932 -0.123873)
(-0.00131779 -0.029303 -0.0773)
(-0.0076567 -0.0228163 -0.0209247)
(0.00427604 -0.00174251 -0.0285855)
(-0.00705604 0.0277482 -0.0734399)
(-0.014286 0.016134 -0.0967113)
(-0.021392 0.0185398 -0.115061)
(-0.0217011 0.00953236 -0.108692)
(-0.0203911 0.00221174 -0.113537)
(-0.0193025 0.00574381 -0.103013)
(-0.0163822 -0.000784819 -0.0934874)
(-0.00669416 -0.0076361 -0.0783345)
(-0.00897833 -0.00343939 -0.0894266)
(0.00517444 -0.00741923 -0.0886497)
(-0.00858834 -0.00940157 -0.0849128)
(-0.0134727 0.00356645 -0.101334)
(-0.0201277 0.00969184 -0.104573)
(-0.0239411 0.0390059 -0.101407)
(-0.0164002 0.0580165 -0.112471)
(-0.0160138 0.0390125 -0.0802079)
(-0.0322467 0.0619802 -0.0412511)
(-0.0544734 0.00609352 -0.01801)
(-0.0550972 0.0151023 -0.0476951)
(-0.0611202 0.0255817 -0.047821)
(-0.0189139 0.0366865 -0.0960793)
(-0.0197241 -0.0365808 -0.0984847)
(0.0175533 -0.0121577 -0.0434017)
(0.00240838 0.0549966 -0.0792482)
(0.0773138 0.0167793 -0.188289)
(0.091025 0.0109927 -0.0309604)
(0.0915108 0.0348535 0.163537)
(0.0953675 0.153619 0.152799)
(-0.0249829 0.189537 0.240405)
(-0.150627 0.210238 0.0757635)
(0.0092755 0.247516 0.142787)
(0.0358178 0.201735 0.154005)
(0.0199284 0.189351 0.183294)
(0.00608665 0.17786 0.105062)
(0.032375 0.192216 0.119159)
(0.00136736 0.19514 0.175125)
(-0.0589893 0.267571 0.0450519)
(-0.0683683 0.261094 0.0588573)
(-0.103357 0.219749 -0.0799743)
(-0.0177889 0.131995 0.0217754)
(-0.039624 0.282612 0.112105)
(-0.0651552 0.196244 -0.0538535)
(-0.0493667 0.103946 -0.0769248)
(-0.0419967 0.0745458 -0.0468124)
(-0.0351127 0.021758 -0.0986275)
(-0.0182339 0.0215883 -0.105359)