/*--------------------------------*- C++ -*----------------------------------*\
  =========                 |
  \\      /  F ield         | OpenFOAM: The Open Source CFD Toolbox
   \\    /   O peration     | Website:  https://openfoam.org
    \\  /    A nd           | Version:  7
     \\/     M anipulation  |
\*---------------------------------------------------------------------------*/
FoamFile
{
    version     2.0;
    format      ascii;
    class       volScalarField;
    location    "19";
    object      alpha.water;
}
// * * * * * * * * * * * * * * * * * * * * * * * * * * * * * * * * * * * * * //

dimensions      [0 0 0 0 0 0 0];

internalField   nonuniform List<scalar> 
15191
(
0.0533723
0.053392
0.0315385
0.00786477
0.00378986
0.0031771
0.00104313
0.000196942
9.5138e-05
7.92998e-05
7.92923e-05
2.03184e-05
1.07489e-05
2.54933e-06
5.87884e-10
6.74648e-20
8.31966e-29
6.91909e-26
3.42684e-19
6.83004e-18
9.5512e-18
2.28611e-17
1.33648e-16
8.94858e-10
9.80083e-10
6.52967e-20
1.06758e-29
1.70291e-29
5.49509e-30
6.45291e-29
7.88342e-28
1.45956e-31
3.46133e-32
4.7626e-33
1.19637e-33
8.90196e-34
7.37433e-33
2.66792e-28
1.53573e-28
6.79309e-29
3.86759e-29
1.15239e-28
2.37235e-28
5.22093e-28
6.53482e-32
2.51009e-33
3.32294e-32
2.07515e-30
1.21196e-31
7.44234e-34
8.07328e-28
4.27424e-28
1.99086e-28
1.61303e-28
1.76821e-22
6.84446e-22
8.17389e-30
2.48669e-29
2.24959e-29
3.21915e-33
2.40187e-33
4.60915e-33
2.48286e-33
1.25109e-33
5.68442e-34
4.12201e-29
1.12481e-29
6.0698e-30
3.52443e-23
5.59937e-24
1.31181e-17
3.76096e-18
3.67728e-16
1.93768e-08
1.20391e-08
1.1495e-16
5.69472e-18
1.91376e-19
3.36935e-26
6.45734e-29
4.17754e-29
7.39664e-29
2.09647e-28
3.6935e-31
1.0551e-30
2.24501e-32
5.93061e-31
7.43918e-33
5.82341e-27
1.03648e-23
8.94875e-24
1.79133e-23
2.55829e-21
2.81408e-25
3.09396e-26
1.02175e-25
5.16553e-24
1.6398e-22
1.80228e-25
2.90983e-34
2.475e-33
1.89066e-31
4.67256e-46
8.77169e-34
2.58352e-30
9.71326e-32
3.2092e-33
9.04487e-39
3.66252e-39
1.31063e-34
1.22459e-34
3.66634e-37
9.16682e-38
2.51883e-31
3.11643e-29
7.36385e-29
5.65956e-31
2.97836e-37
1.37392e-40
1.15408e-43
4.30548e-37
1.04615e-38
4.69504e-48
6.27846e-37
4.64742e-27
3.22906e-34
1.0399e-43
4.52445e-44
4.52351e-41
1.28241e-39
8.10052e-42
7.9854e-43
1.97999e-42
2.82394e-41
1.32347e-40
1.31194e-31
9.63061e-36
1.36564e-41
5.49396e-37
8.08458e-34
2.14512e-42
5.56664e-35
1.33695e-30
6.76666e-33
8.23171e-35
3.0172e-38
1.07459e-38
5.1892e-36
5.24395e-36
3.35698e-39
8.84571e-39
2.22186e-33
1.06444e-33
3.54243e-32
3.20142e-35
4.29135e-36
1.14151e-25
3.7499e-25
1.17006e-25
2.40163e-25
1.25878e-24
4.00472e-21
1.73414e-20
7.90195e-22
6.03985e-22
2.28201e-20
7.57931e-18
7.13971e-20
2.59805e-23
2.95848e-24
8.50451e-24
9.92109e-21
2.11825e-21
3.10662e-35
9.0717e-45
4.89122e-38
5.74056e-34
3.36129e-46
8.75472e-34
3.14185e-30
8.41716e-33
1.12638e-34
2.01517e-38
7.07711e-39
5.01762e-37
9.103e-38
1.91176e-39
5.71495e-39
6.2002e-38
2.65767e-37
6.80292e-37
2.07878e-37
1.22975e-40
2.59089e-48
9.15667e-52
4.32816e-31
4.32303e-31
1.26407e-31
5.8648e-26
4.41276e-23
2.42911e-25
1.54753e-25
7.7337e-25
3.97837e-21
1.73738e-18
2.6334e-20
3.25282e-23
1.51091e-23
1.78456e-23
8.12074e-25
1.25723e-24
1.44628e-23
2.1622e-28
3.61621e-30
3.69094e-30
3.60788e-30
1.05228e-30
3.61598e-38
1.77631e-36
4.81024e-37
1.79302e-37
1.57258e-37
1.32298e-37
1.22484e-37
1.07048e-37
1.15564e-37
5.43027e-37
5.13309e-37
5.01896e-37
2.10559e-36
2.3635e-36
3.25051e-36
6.46958e-37
1.63534e-34
1.23398e-34
1.71122e-33
3.37656e-30
8.99257e-31
9.73041e-33
1.27973e-33
7.57638e-33
3.19746e-33
2.96245e-34
8.43801e-35
1.01552e-34
2.43213e-34
2.31889e-39
2.06583e-34
8.16844e-34
4.94485e-35
3.89429e-35
1.35696e-35
1.24189e-35
7.73582e-36
1.68967e-35
5.42987e-36
2.18035e-36
1.91829e-36
5.74144e-36
4.19732e-35
2.30565e-34
3.21857e-35
3.84529e-33
5.2666e-33
4.17873e-32
9.14211e-34
2.69546e-34
2.5088e-33
2.00692e-33
5.08461e-34
5.39042e-34
3.44375e-33
6.15049e-34
1.73127e-34
8.16258e-32
5.4752e-30
6.74962e-32
1.43078e-33
9.35302e-27
5.28593e-26
5.12853e-32
1.06209e-32
2.82322e-36
2.27077e-35
8.82721e-36
1.68865e-36
3.56256e-37
1.04126e-36
2.912e-36
1.08119e-35
8.32307e-35
8.61846e-36
2.01662e-36
2.54676e-35
1.22458e-34
2.71713e-30
1.85432e-11
1.92124e-15
6.79669e-32
3.57147e-21
3.10633e-21
2.55052e-21
2.47959e-21
1.43467e-21
1.29823e-21
8.19975e-22
8.55621e-15
3.19497e-13
3.36782e-13
4.04036e-12
1.65904e-10
2.95041e-09
2.95497e-09
1.26824e-08
9.31204e-08
5.15956e-07
1.56966e-06
2.08203e-06
4.85512e-06
1.17728e-05
2.34149e-05
4.49248e-05
4.75152e-05
9.06898e-05
0.000149623
0.00026837
0.000564482
0.000823967
0.00115684
0.00180912
0.00280003
0.00730574
0.00977039
0.0213415
0.0398967
0.0630869
0.122659
0.147322
0.206581
0.30984
0.470358
0.485786
0.386473
0.483032
0.478869
0.317128
0.324787
0.321377
0.198745
0.123142
0.121468
0.0655955
0.050172
0.0256866
0.0378364
0.0725786
0.0646272
0.0839871
0.128979
0.203963
0.197041
0.134121
0.118151
0.112558
0.0754858
0.0370415
0.0318967
0.0161067
0.0175403
0.0180571
0.00674391
0.00849971
0.00292605
0.0016492
0.00158059
0.00282586
0.00522713
0.00471131
0.00570649
0.00621713
0.00581659
0.00628834
0.00770002
0.00368527
0.00220442
0.0021814
0.000923082
0.00106654
0.00118488
0.000434782
0.000496952
0.000276499
0.000143249
0.000121364
0.000152042
0.000272198
0.000227095
0.000434847
0.000384479
0.000202428
0.000159509
0.000136634
5.69231e-05
7.79731e-05
6.90261e-05
3.66284e-05
3.53169e-05
2.34225e-05
1.02299e-05
6.53071e-06
2.21628e-05
3.3542e-05
2.05171e-05
2.50247e-05
1.97418e-05
1.3957e-05
2.05177e-05
1.82003e-05
4.012e-06
4.73631e-06
2.99901e-06
5.96698e-07
1.16031e-06
3.90864e-07
6.5213e-08
1.05809e-08
3.60788e-08
1.75915e-07
1.53537e-07
6.48741e-07
5.94039e-07
1.30621e-07
5.52373e-08
3.74231e-08
1.20957e-08
9.8971e-09
6.34969e-09
1.24748e-09
1.36226e-09
1.93916e-10
1.15986e-11
5.6909e-13
6.43195e-11
2.48516e-10
3.59947e-10
1.93221e-09
1.85671e-09
3.49906e-10
1.16051e-10
7.39651e-11
2.34011e-12
7.04418e-13
1.07341e-13
1.38646e-13
4.99027e-15
2.50707e-22
2.48436e-39
6.65559e-39
1.84013e-31
2.92921e-15
5.2438e-16
3.91983e-37
6.31322e-34
7.20638e-16
3.69834e-15
2.57876e-15
3.47282e-13
6.5689e-11
3.88835e-10
1.70537e-09
1.89029e-09
5.75705e-09
4.64472e-08
1.666e-07
5.61825e-07
6.68221e-07
1.59996e-06
5.14451e-06
1.10448e-05
2.36498e-05
2.62026e-05
5.03786e-05
0.000121469
0.000249037
0.000421784
0.000553515
0.00103964
0.00168028
0.00393829
0.00609451
0.0175936
0.0323842
0.0419452
0.0731921
0.119539
0.200552
0.323856
0.476167
0.319795
0.32982
0.205123
0.155143
0.215561
0.209464
0.326639
0.465817
0.464722
0.337173
0.255811
0.352481
0.482725
0.475205
0.467117
0.469549
0.330996
0.336982
0.220981
0.213679
0.203868
0.109404
0.122058
0.139162
0.118822
0.0815722
0.0430859
0.0209581
0.0217448
0.00953836
0.00746738
0.0130228
0.0111032
0.0214941
0.0400602
0.0432462
0.0600636
0.0683726
0.0699023
0.0693349
0.0405539
0.0181214
0.0090727
0.0045083
0.0051831
0.00454207
0.00217432
0.0011416
0.000466335
0.00044143
0.000254667
0.000137448
0.000229116
0.000209339
0.000483302
0.00105371
0.00199536
0.00294246
0.00548583
0.00382999
0.00668577
0.010486
0.0167505
0.032495
0.0578109
0.0603328
0.110825
0.15334
0.136015
0.0787915
0.0533801
0.092438
0.132158
0.21729
0.210067
0.336855
0.473801
0.605359
0.682999
0.759137
0.738276
0.608721
0.628518
0.492231
0.423789
0.520497
0.507324
0.60318
0.737346
0.749067
0.638639
0.505154
0.34549
0.364534
0.412131
0.357089
0.323926
0.201872
0.123299
0.123601
0.0837417
0.0453573
0.0457727
0.0358418
0.0275915
0.0152419
0.00629551
0.00607823
0.00355129
0.00243768
0.00142585
0.00203009
0.00089454
0.00095798
0.000458719
0.000251024
0.000384539
0.000406828
0.000876808
0.00101896
0.001447
0.00227862
0.00400357
0.00785865
0.0194187
0.0220869
0.0307048
0.029026
0.0377994
0.075157
0.0792791
0.111709
0.206989
0.220997
0.287517
0.288151
0.347268
0.505255
0.637698
0.748802
0.73753
0.738733
0.610324
0.603292
0.507401
0.412435
0.367917
0.358135
0.207732
0.220036
0.127018
0.127524
0.0794836
0.0314378
0.0369982
0.0255187
0.0188866
0.0186173
0.0104556
0.0116392
0.00589357
0.00291536
0.00140511
0.00143832
0.000894104
0.000540863
0.000522131
0.000288234
0.000276802
0.000178816
0.000168855
0.000168757
0.000113298
8.66067e-05
8.85016e-05
5.33288e-05
1.55946e-05
2.01445e-05
7.41052e-06
4.13042e-06
5.83245e-06
6.21265e-06
1.37841e-05
2.0411e-05
5.41241e-05
5.03734e-05
4.35795e-05
4.55002e-05
1.91797e-05
7.4377e-06
2.89419e-06
3.21578e-06
3.68799e-06
1.33401e-06
3.73723e-07
4.67395e-07
1.31322e-07
4.29917e-08
1.01603e-07
1.35107e-07
4.67794e-07
4.82315e-07
7.36286e-07
2.21028e-06
3.00043e-06
1.10123e-05
1.47039e-05
4.70096e-05
9.62395e-05
8.38808e-05
0.00016655
0.000192709
0.000137333
9.47413e-05
0.000132931
0.000136235
0.000275555
0.00022026
0.000416509
0.000823099
0.00149996
0.00294342
0.00570059
0.00416844
0.00876557
0.0123404
0.00975528
0.0253082
0.024994
0.0316109
0.0795726
0.0790192
0.111891
0.124044
0.203253
0.323855
0.423505
0.520972
0.492783
0.474485
0.605623
0.612002
0.470246
0.331484
0.337362
0.21065
0.124201
0.0841042
0.0751569
0.0379961
0.0368697
0.0251896
0.0122241
0.00970939
0.00735556
0.00741627
0.00305354
0.00163818
0.00217026
0.0011134
0.000542108
0.00041433
0.000300066
0.000316883
0.000177786
0.000174584
9.09606e-05
7.91429e-05
5.65326e-05
5.85027e-05
3.5232e-05
4.12533e-05
1.82718e-05
9.76926e-06
4.11429e-06
2.9426e-06
8.76427e-06
2.13015e-05
2.66545e-05
1.59789e-05
3.56137e-05
5.20264e-05
5.52622e-05
2.07228e-05
4.00188e-05
5.96792e-05
0.000119216
6.52146e-05
0.000102626
0.000316856
0.000299927
0.000474945
0.00086646
0.000828861
0.00159104
0.00298883
0.00412536
0.0086724
0.0104442
0.0185913
0.0287428
0.0186455
0.0224781
0.024054
0.0241854
0.0226681
0.0197724
0.00870438
0.00469102
0.00229391
0.00116459
0.000351781
0.00035456
0.000214722
0.000176016
0.000125403
6.61353e-05
3.34371e-05
2.88844e-05
3.16581e-05
2.00161e-05
1.93594e-05
1.30984e-05
8.22864e-06
4.53421e-06
4.2408e-06
2.68828e-06
1.66704e-06
7.55111e-07
2.10703e-07
2.97374e-07
1.0787e-07
3.18665e-08
8.08627e-08
2.02629e-07
8.19016e-07
1.23275e-06
2.037e-06
2.88711e-06
1.53899e-06
2.72961e-06
2.74853e-06
7.27972e-06
7.74198e-06
2.27254e-05
1.49317e-05
3.05744e-05
3.6558e-05
3.719e-05
3.6734e-05
6.44522e-05
0.000101318
0.000304631
0.000299927
0.000444194
0.000540038
0.0011069
0.00215009
0.00300831
0.00572347
0.00592295
0.0117819
0.0222431
0.0309316
0.0457065
0.0462925
0.0360487
0.0538842
0.0927863
0.132446
0.217545
0.221399
0.338098
0.476055
0.613271
0.611862
0.483272
0.353689
0.256821
0.21476
0.153142
0.135951
0.0788598
0.0600631
0.110951
0.110016
0.204586
0.209487
0.326981
0.466797
0.4766
0.320378
0.216189
0.15504
0.137966
0.122229
0.0604265
0.0578197
0.0322684
0.0273435
0.0150581
0.0196676
0.00796815
0.00395087
0.00224724
0.00293789
0.00146037
0.00154849
0.000856585
0.000436312
0.000301397
0.000294727
0.000191208
0.00012469
6.21623e-05
3.1851e-05
3.60613e-05
3.09394e-05
1.48482e-05
6.74302e-06
7.04295e-06
2.48481e-06
2.19943e-06
9.41631e-07
1.05962e-06
1.37025e-06
6.87003e-07
5.37124e-07
8.38921e-08
4.42379e-08
3.26994e-08
2.41211e-08
3.55086e-08
3.98778e-08
2.9055e-08
4.52471e-09
7.50318e-10
1.34229e-09
2.79039e-10
7.38379e-12
6.7862e-11
1.31089e-10
6.48104e-10
8.95391e-10
3.02905e-09
3.883e-09
6.25262e-09
1.13842e-08
2.49508e-10
2.07489e-11
3.95522e-12
4.62686e-12
5.14062e-12
1.16349e-13
2.53627e-15
6.54192e-16
1.32847e-23
1.86968e-25
3.58916e-25
2.25513e-24
3.09144e-24
2.02139e-37
2.08314e-37
2.32371e-37
2.73478e-22
6.03012e-22
3.95582e-23
1.37705e-26
3.66636e-31
2.92727e-21
7.42166e-22
1.09585e-21
1.86903e-37
1.52824e-37
7.9306e-22
1.678e-21
1.28709e-37
7.66995e-22
1.29935e-21
1.04261e-22
6.69672e-22
2.10524e-21
2.68253e-39
7.10291e-39
5.19742e-14
2.00965e-13
7.55735e-14
9.90368e-15
3.77337e-13
4.8845e-13
3.4732e-12
1.26067e-10
7.53951e-09
9.40251e-09
9.58449e-08
9.3288e-07
1.476e-06
1.20079e-06
2.54436e-06
8.84782e-06
1.33462e-05
2.9605e-05
4.37011e-05
6.20564e-05
0.00012498
0.000204566
0.000294031
0.00032523
0.00083235
0.00142419
0.00210159
0.00400112
0.00458492
0.0063464
0.0237729
0.0326339
0.0645207
0.0805796
0.125887
0.217959
0.316901
0.462156
0.325515
0.211425
0.206286
0.200853
0.116701
0.0666561
0.0648175
0.0336234
0.0231278
0.0222205
0.0214015
0.008438
0.0042189
0.003722
0.00169723
0.0016267
0.00134996
0.00127202
0.000450342
0.000200933
0.000247969
0.000192104
8.96594e-05
8.78191e-05
6.12243e-05
2.35224e-05
1.51372e-05
2.88004e-05
1.62412e-05
9.41999e-06
5.60823e-06
3.12515e-06
7.54115e-07
2.56284e-07
4.48847e-07
2.29416e-07
4.12575e-08
1.66234e-08
2.04903e-08
1.75397e-09
5.03187e-09
1.22823e-10
2.96304e-12
8.39753e-12
9.41598e-12
7.64851e-13
1.52477e-12
2.56522e-13
1.05986e-31
7.37826e-32
6.31244e-30
6.27354e-31
3.86693e-23
6.25181e-15
2.70619e-13
1.40124e-13
1.60896e-13
1.08282e-12
8.90959e-11
1.63119e-08
2.3239e-08
4.28343e-07
3.96948e-06
4.60802e-06
2.47241e-06
2.28278e-06
5.70177e-06
1.89604e-05
3.96607e-05
4.56325e-05
6.8267e-05
0.000121503
0.000204281
0.00021614
0.000185154
0.000310508
0.000827187
0.00202771
0.00230547
0.00366867
0.0072955
0.013754
0.0364264
0.0452415
0.0789984
0.136458
0.191268
0.2962
0.45387
0.342892
0.199811
0.121415
0.0660065
0.0399908
0.0168556
0.0197489
0.0079917
0.00353278
0.00226474
0.00241723
0.00126319
0.000536624
0.000260292
0.000199447
0.00019735
7.21741e-05
2.7157e-05
2.01841e-05
1.40516e-05
6.64004e-06
2.6971e-06
5.40306e-07
1.65142e-07
4.37304e-08
4.695e-08
2.93822e-09
3.71154e-10
8.25635e-11
1.68484e-11
4.08093e-12
3.72711e-13
1.56426e-12
3.84684e-12
6.69323e-15
4.25373e-31
2.60151e-31
3.9456e-31
1.30963e-31
2.15143e-35
1.88115e-34
1.03169e-31
3.36716e-29
5.29106e-29
1.30411e-15
7.5263e-14
1.77989e-13
1.14594e-11
2.10378e-11
6.97022e-11
8.93983e-09
6.30389e-08
1.19206e-07
4.90629e-07
1.66723e-06
5.54853e-06
1.09733e-05
1.65151e-05
2.49896e-05
2.54315e-05
3.70416e-05
8.76629e-05
0.000147476
0.000132225
0.000132225
0.00014496
0.000262858
0.000548309
0.00111331
0.00139256
0.00348317
0.00612126
0.0177427
0.020964
0.0363912
0.0693936
0.109311
0.184154
0.398287
0.155876
0.0513049
0.0131627
0.00192824
0.000341111
0.000183567
2.13387e-05
9.09548e-06
2.12624e-06
1.38821e-07
2.47155e-09
5.13237e-10
7.05952e-12
1.59504e-29
7.74251e-28
4.95665e-28
2.92095e-28
6.14566e-28
2.17654e-29
1.94786e-29
3.15027e-33
1.00802e-34
2.14693e-34
3.33753e-33
5.9263e-33
1.12441e-29
3.66041e-13
1.63126e-30
1.77561e-33
2.8142e-33
8.74929e-34
3.54404e-29
9.35091e-30
5.72752e-08
2.43253e-07
1.12009e-06
1.1334e-06
4.15563e-06
5.60581e-06
1.02873e-05
1.99495e-05
4.75672e-05
6.81728e-05
0.000120293
0.00017181
0.000167839
0.00018303
0.000417677
0.00101374
0.00237833
0.00283297
0.00533376
0.00776285
0.0145189
0.0244798
0.0384205
0.0642983
0.400304
0.158088
0.0511706
0.0125327
0.00229479
0.000624402
0.000177337
4.22089e-05
1.01588e-05
4.43891e-06
1.48131e-06
5.08686e-07
2.30129e-07
5.58831e-08
1.34037e-08
2.9903e-10
8.93391e-11
2.68652e-12
3.60052e-12
7.92193e-12
1.12176e-10
7.93689e-10
5.56013e-09
6.97147e-09
1.20657e-08
1.34617e-08
3.10307e-09
1.92561e-09
3.86157e-10
2.0162e-11
8.37886e-12
7.6351e-13
3.17995e-13
1.4133e-13
8.74601e-12
1.34381e-13
1.12141e-14
1.68776e-14
4.56003e-25
1.10794e-24
5.30133e-49
3.41777e-48
3.34528e-45
3.55533e-43
4.77933e-27
2.30637e-25
9.02272e-26
1.15488e-24
1.38032e-26
4.17543e-14
3.59052e-14
2.54321e-14
1.92056e-14
1.72017e-14
4.72918e-15
5.50397e-15
2.27608e-14
2.25552e-21
1.06419e-22
3.12306e-14
7.01147e-14
2.38715e-12
6.71711e-13
5.89108e-13
5.12632e-13
1.48037e-12
6.75346e-14
3.06222e-13
2.4055e-11
3.80713e-34
7.41017e-34
1.86622e-31
8.97637e-31
1.15802e-12
3.38426e-15
3.32987e-31
8.21537e-31
4.60452e-30
4.58989e-30
3.0004e-30
1.94534e-30
9.19981e-27
7.28227e-17
4.39965e-16
1.72183e-13
2.19402e-11
2.06311e-11
2.06273e-10
1.62541e-09
1.58543e-09
2.09961e-08
1.76428e-07
2.67062e-07
7.76273e-07
1.62471e-06
2.78516e-06
4.92198e-06
7.57005e-06
8.84058e-06
1.72238e-05
2.54133e-05
6.33978e-05
0.000202809
0.000278104
0.000267419
0.000271743
0.000567429
0.00173284
0.00175804
0.00246276
0.00497211
0.0160631
0.026464
0.0460099
0.0746709
0.113382
0.191096
0.316019
0.19776
0.120322
0.0728669
0.0398715
0.0213427
0.0147062
0.00659801
0.00373993
0.00385116
0.00436891
0.00175615
0.00137086
0.00067983
0.000286148
0.000203039
0.000133685
0.000173307
0.000136216
0.000132225
0.000142606
9.41743e-05
3.98749e-05
2.64802e-05
2.09261e-05
3.18813e-05
1.70988e-05
5.37614e-06
2.73736e-06
5.15543e-06
3.12012e-06
1.2398e-06
1.75125e-07
1.07246e-07
1.53633e-08
4.96495e-11
5.18991e-12
3.09144e-12
2.67774e-12
1.70261e-13
3.21507e-15
5.42202e-16
6.0462e-16
6.86885e-27
2.10357e-29
1.65304e-31
5.65714e-30
8.97513e-30
7.96809e-30
4.12085e-31
2.0569e-33
3.86436e-30
7.88437e-31
2.257e-30
2.96649e-14
8.52748e-15
4.62651e-15
5.95481e-15
6.10702e-15
5.27488e-16
4.3629e-14
3.75919e-12
5.23015e-12
1.4176e-10
8.63698e-10
4.89494e-10
7.23984e-09
5.44252e-08
6.44204e-08
2.60129e-07
1.17997e-06
1.39094e-06
4.25457e-06
3.82846e-05
3.82865e-05
2.64465e-05
2.77429e-05
6.02479e-05
0.000121885
0.000182894
0.000195154
0.000428252
0.0010272
0.00168029
0.00293183
0.00438548
0.00494499
0.00579182
0.0152336
0.0427525
0.0465276
0.0697429
0.109234
0.180615
0.194967
0.120089
0.0732219
0.04107
0.0365274
0.0148547
0.00596685
0.00316761
0.00358549
0.00231914
0.000992623
0.000495714
0.000404267
0.000271178
0.000262731
7.48079e-05
8.08325e-05
2.56413e-05
1.36258e-05
1.44063e-05
3.39643e-05
3.207e-06
7.75671e-07
1.04905e-06
3.76534e-07
1.00126e-07
8.16316e-09
9.64979e-09
3.45508e-09
2.25531e-10
1.66261e-11
2.67335e-11
3.35346e-11
2.93541e-10
2.77604e-10
4.56952e-09
3.69237e-08
3.00646e-08
1.75377e-07
7.49946e-07
1.00004e-06
6.02207e-06
1.22414e-05
2.4368e-05
1.98985e-05
3.11012e-05
3.02155e-05
7.31535e-05
0.000118049
0.000120042
0.000181176
0.000455879
0.00132768
0.00179533
0.00335049
0.00558926
0.00856268
0.00800083
0.0212657
0.0364216
0.0675069
0.0749959
0.128517
0.194506
0.194645
0.126576
0.0805138
0.0770845
0.0381658
0.0200395
0.00770102
0.00715825
0.00393615
0.0027642
0.00106164
0.00144965
0.000508962
0.000261602
0.000181342
0.000173982
8.92736e-05
3.98494e-05
1.99029e-05
1.99031e-05
2.03091e-05
2.4377e-05
4.93939e-06
4.79725e-06
5.12784e-06
1.0414e-06
1.66469e-07
1.75074e-07
1.48009e-07
2.50512e-08
2.91731e-09
2.17685e-09
9.56335e-09
3.05752e-08
2.97594e-08
3.78182e-09
1.06469e-10
1.77609e-10
2.69671e-12
3.29526e-11
2.09646e-10
1.27563e-11
2.12411e-11
2.48281e-11
1.90987e-12
1.33405e-12
2.41845e-13
1.41343e-14
4.49639e-14
2.05503e-22
0.00255826
0.00485208
0.0168976
0.0308322
0.0503735
0.0613844
0.116269
0.400788
0.159256
0.0497354
0.0125036
0.00214295
0.000515972
0.000134595
3.24881e-05
9.68694e-06
2.28757e-06
2.16247e-07
4.36648e-09
3.95941e-10
2.17655e-10
8.3204e-12
8.59407e-12
4.35129e-12
3.57746e-15
1.46119e-12
4.11968e-13
2.38619e-13
1.68992e-12
8.19817e-11
2.58444e-11
4.02661e-12
1.37482e-11
3.58537e-12
5.62368e-12
4.65178e-12
2.90381e-10
2.38628e-12
1.27401e-12
2.6395e-13
4.88666e-15
7.36296e-14
5.43516e-15
3.54543e-26
2.34618e-38
8.3196e-39
8.93663e-39
2.44057e-38
1.77265e-29
9.25964e-32
4.06766e-13
3.89876e-12
1.504e-12
1.25675e-10
1.38877e-13
1.28569e-14
9.87706e-14
7.31428e-14
2.17385e-13
1.3742e-14
1.24187e-15
9.75625e-16
8.90897e-14
3.00202e-12
3.63724e-12
1.07323e-13
3.03311e-13
6.49916e-13
1.09524e-13
1.88755e-16
1.81864e-27
3.44273e-25
7.92457e-39
6.2876e-38
7.09157e-38
2.8462e-29
2.70872e-29
1.27075e-29
3.98436e-30
2.39825e-29
1.62201e-38
2.21743e-29
2.8055e-29
8.05439e-25
5.22247e-25
1.63416e-24
1.14631e-34
9.5595e-35
0.464172
0.344134
0.201285
0.124345
0.069102
0.0425078
0.0194013
0.00784027
0.00372976
0.00299085
0.00124761
0.000342273
0.000163902
9.23942e-05
5.48757e-05
1.89846e-05
9.69812e-06
2.59538e-06
5.88831e-10
1.53023e-09
9.18474e-15
5.50585e-22
1.98515e-28
6.32736e-29
1.69438e-28
3.08292e-11
5.6035e-11
8.81595e-12
2.06262e-13
1.93299e-13
9.0365e-14
3.63352e-13
8.23547e-13
0.47238
0.348536
0.213622
0.117105
0.0589933
0.043917
0.0234605
0.00812581
0.00324566
0.00213511
0.0012469
0.000276821
0.000159196
8.77327e-05
7.77561e-05
7.75302e-06
3.59363e-06
9.78794e-07
5.57051e-09
2.29012e-10
3.16267e-10
4.13663e-06
1.01012e-05
1.82927e-05
1.27628e-05
3.93985e-05
4.49735e-05
0.000142224
0.000255631
0.000228848
0.000320343
0.000328151
0.000317015
0.000864051
0.00204534
0.00204554
0.00345514
0.005896
0.0193807
0.0236935
0.043906
0.0611665
0.118842
0.116955
0.0693008
0.04081
0.0251086
0.0176648
0.00698389
0.0033481
0.00334832
0.00248016
0.00281412
0.001563
0.000417536
0.000273654
0.000173657
0.000200277
0.000236387
0.000155482
0.000109304
0.000111974
3.33735e-05
1.94862e-05
1.46677e-05
2.00969e-05
8.59826e-06
4.0041e-06
2.44503e-06
5.11139e-06
6.60598e-06
1.00393e-06
1.04169e-06
1.7183e-07
0.472509
0.337152
0.213579
0.118051
0.0724287
0.0459417
0.0217291
0.00703661
0.0058214
0.0057035
0.0117657
0.0025649
0.000614301
9.22314e-05
2.84945e-05
8.85324e-06
3.80323e-06
2.67134e-07
1.16722e-09
2.25714e-10
2.2762e-10
7.88023e-11
1.25041e-10
6.43406e-13
4.44742e-13
1.54097e-15
4.88829e-31
2.65283e-29
2.96937e-29
9.30364e-29
6.29066e-30
7.58384e-14
7.93166e-18
0.0553362
0.0481538
0.0302999
0.00720651
0.00338479
0.0025237
0.00128795
0.000249782
0.000105602
8.50994e-05
0.000136007
0.000174746
0.000114368
2.47163e-05
2.59786e-05
2.70786e-05
1.25088e-05
1.23045e-05
1.04922e-05
1.02131e-05
3.20321e-06
5.30417e-09
3.19506e-09
0.0163388
0.0382417
0.0703695
0.0622028
0.115032
0.11478
0.0776958
0.0375753
0.0392656
0.0381974
0.0172375
0.00591438
0.00422118
4.2096e-13
6.66973e-09
7.57516e-11
2.23084e-08
9.37837e-11
7.53293e-12
2.04336e-12
3.62051e-13
6.58695e-13
4.37415e-13
5.51321e-15
3.78761e-11
3.00822e-12
2.73373e-11
3.95671e-13
2.77266e-13
2.87963e-14
2.65147e-31
1.95827e-31
1.12257e-29
1.21336e-31
2.07521e-33
8.6226e-33
7.48224e-30
1.10969e-27
3.42576e-27
1.01441e-34
1.14005e-33
1.28221e-33
2.21173e-34
1.99847e-31
5.29038e-31
2.11083e-29
5.32791e-31
1.29003e-30
4.17149e-13
9.10225e-13
7.96005e-12
6.81786e-14
5.93532e-14
5.50118e-14
6.62801e-14
3.47582e-13
3.08109e-13
1.73929e-12
5.05612e-11
3.4102e-11
1.26566e-11
5.3001e-11
2.76311e-10
1.46864e-10
4.62543e-10
4.97725e-10
1.70626e-08
8.31348e-09
5.0218e-09
6.51679e-09
7.45275e-09
7.1615e-09
7.15098e-10
3.56948e-11
5.04416e-11
7.1794e-11
3.15248e-09
3.90688e-08
1.86385e-07
3.08388e-07
1.25564e-06
4.28865e-06
6.61348e-06
1.96101e-05
1.64221e-05
1.2882e-05
2.18755e-05
4.34557e-05
0.000111383
0.000193348
0.000219114
0.000132225
0.000238621
0.000556432
0.00143761
0.00174106
0.000830233
0.000327107
0.000148767
0.000162089
0.000147727
0.000134611
3.27702e-05
2.07248e-05
1.2875e-05
1.4012e-05
1.93995e-05
7.96083e-06
2.70309e-06
9.69768e-07
4.23442e-07
1.21386e-07
2.83793e-08
9.93519e-10
2.30315e-08
7.88438e-08
2.05378e-08
1.853e-08
5.69726e-09
3.05941e-07
2.23218e-08
0.0556253
0.048015
0.0303875
0.0072923
0.00346987
0.00248237
0.00125641
0.000254252
0.000104684
9.77453e-05
2.94857e-05
7.83595e-06
1.27119e-05
1.03915e-05
1.98081e-06
1.41573e-07
1.12554e-08
3.36842e-27
3.29725e-26
1.6843e-25
2.39389e-27
1.41526e-28
8.11606e-21
2.54392e-21
5.30844e-21
7.24783e-21
4.02061e-21
5.24638e-28
5.48493e-26
2.08096e-27
1.09017e-25
1.27688e-26
1.2186e-27
8.42864e-27
7.43961e-19
1.63624e-18
1.28828e-18
2.90287e-18
3.32094e-18
4.35972e-14
6.29662e-14
5.56028e-14
7.32726e-13
1.26339e-11
1.27783e-11
8.02135e-13
4.25955e-19
1.01767e-19
5.94765e-19
3.78939e-19
6.1238e-21
3.19037e-21
9.14477e-20
8.30424e-19
3.59648e-13
2.7883e-13
9.87875e-14
1.13465e-13
1.46515e-13
3.27664e-13
3.65538e-13
2.34673e-13
2.17648e-13
3.03799e-13
7.64329e-13
3.48165e-13
2.88909e-14
6.07228e-14
2.04292e-14
3.22067e-15
1.83067e-14
5.5695e-15
1.5875e-15
1.49415e-14
9.43671e-15
1.14863e-14
1.22751e-14
1.27754e-14
2.10744e-14
1.96412e-14
1.08576e-14
8.56367e-15
1.5776e-15
5.20764e-16
6.43074e-16
5.73595e-17
3.30381e-16
8.76211e-16
1.1286e-16
1.16868e-14
4.00509e-14
2.31914e-14
3.18484e-14
1.00842e-14
4.83548e-15
8.50767e-16
1.04638e-15
1.87806e-15
1.82852e-15
3.37996e-15
9.69497e-15
3.63249e-14
2.63949e-14
5.22424e-14
3.99645e-13
2.63628e-12
2.64104e-12
4.56822e-11
2.38836e-10
3.56442e-10
7.05499e-09
6.38037e-08
1.16097e-07
6.32703e-07
2.25893e-06
2.59133e-06
9.60449e-06
9.60489e-06
9.60528e-06
1.23707e-05
2.58375e-05
6.00417e-05
0.00012087
0.000165691
0.000200281
0.00044078
0.00103844
0.00169527
0.00295465
0.00438398
0.00490677
0.00594434
0.0157748
0.0429109
0.0467752
0.0696632
0.108821
0.180944
0.305961
0.291241
0.194302
0.129498
0.0758397
0.0676886
0.0368294
0.0214523
0.0080179
0.00864986
0.00559843
0.00333676
0.00179616
0.00131976
0.000462874
0.000223945
0.000133511
0.000114761
6.4723e-05
3.13928e-05
1.34796e-05
1.92822e-05
1.36538e-05
4.99598e-06
4.42977e-06
1.27866e-06
3.18844e-07
2.05098e-07
4.04916e-08
2.49795e-09
7.85949e-09
1.94176e-10
1.37703e-11
8.15412e-11
6.20646e-12
5.17836e-13
4.14162e-13
1.30311e-13
9.38932e-13
2.41998e-12
3.9006e-12
2.02647e-12
9.52004e-13
3.74857e-13
1.67776e-13
3.93583e-13
4.24992e-13
4.43576e-14
3.20788e-13
1.91305e-13
8.19913e-14
6.59571e-16
7.33783e-14
3.64324e-14
5.71985e-14
4.38894e-16
1.61262e-13
1.58775e-13
4.83209e-14
1.10463e-13
1.56974e-13
3.31535e-13
3.12046e-13
1.23476e-13
1.13079e-13
4.93553e-14
1.50706e-13
1.4418e-13
1.00469e-14
9.36795e-14
1.32795e-13
1.41061e-13
1.32718e-14
1.79188e-13
4.978e-13
8.23954e-13
6.09956e-14
1.01836e-12
3.83347e-12
9.63988e-12
1.65237e-11
9.5044e-12
1.14214e-11
2.70665e-11
2.25568e-11
1.46263e-11
3.75785e-12
2.70853e-12
1.05701e-12
2.3244e-11
1.74663e-10
2.15437e-10
7.00599e-11
2.31756e-10
1.82666e-10
3.27445e-10
7.81531e-10
1.01911e-09
6.6896e-10
7.04241e-10
1.97116e-10
5.40214e-10
1.49565e-09
0.012156
0.00719878
0.00306756
0.00240051
0.000961071
0.000248661
0.000155968
0.000135677
7.18255e-05
1.83824e-05
1.08179e-05
3.27174e-06
3.29143e-09
4.91971e-09
4.47295e-08
3.60681e-08
3.51941e-06
2.10026e-33
3.56351e-33
1.141e-10
2.13892e-10
2.44171e-11
1.65269e-12
1.96395e-12
2.39974e-12
1.67725e-12
1.8781e-12
3.75074e-12
4.74435e-13
9.56854e-19
1.21795e-23
3.09283e-18
1.01683e-18
2.85691e-17
4.55624e-16
1.64068e-17
4.23491e-19
2.66395e-18
6.72412e-18
2.80371e-18
2.53999e-21
3.8659e-20
2.99937e-20
5.67081e-22
6.33253e-24
2.32831e-23
1.45178e-22
3.09085e-22
2.54522e-23
5.3675e-22
3.99728e-22
8.30219e-22
1.30396e-21
3.05203e-23
8.99851e-24
3.19653e-28
8.97976e-32
3.8304e-31
2.57048e-29
2.17681e-29
5.63751e-30
1.08662e-29
7.64906e-28
1.17899e-25
1.10359e-22
2.82702e-23
1.07451e-22
1.27932e-22
4.27941e-27
6.27764e-28
8.31166e-26
1.18792e-23
5.01252e-25
4.56745e-27
1.15438e-22
1.08775e-22
1.11561e-22
3.547e-23
2.06267e-22
1.73028e-25
2.12833e-28
2.30652e-16
9.90182e-16
1.71582e-13
7.93158e-12
1.44436e-11
3.20571e-10
2.00101e-09
3.70538e-09
3.94861e-08
3.59293e-07
4.21957e-07
5.89939e-07
1.58015e-06
1.49455e-05
1.52222e-05
1.10418e-05
1.30416e-05
2.18117e-05
2.97118e-05
5.42387e-05
0.00016985
0.000283019
0.000275308
0.000287439
0.000596037
0.00178926
0.00181984
0.00250091
0.0050134
0.0160846
0.0263643
0.0460253
0.0741805
0.113221
0.19086
0.18201
0.1128
0.0630405
0.0503718
0.0365305
0.0151225
0.00620005
0.00325846
0.0036289
0.00235125
0.00100154
0.000493433
0.000417222
0.00023358
0.000193451
7.5153e-05
7.57572e-05
2.53581e-05
1.10419e-05
1.104e-05
9.60528e-06
1.49039e-05
2.08936e-06
8.1198e-07
7.89984e-07
1.94065e-07
1.65469e-08
1.11912e-08
1.00762e-09
6.16273e-11
5.47524e-11
7.68894e-12
1.18162e-13
2.36644e-13
1.36964e-14
4.73181e-14
4.33026e-13
1.05159e-24
3.64164e-29
6.69808e-25
7.4027e-38
6.36451e-38
3.16589e-38
1.33471e-37
1.78292e-35
6.67837e-36
1.87196e-37
7.77732e-36
3.0629e-36
4.73303e-36
7.27254e-36
9.15132e-36
2.03502e-36
1.49434e-36
1.37533e-36
4.45645e-36
3.76851e-35
1.11125e-34
5.31166e-35
1.15381e-36
6.54131e-36
3.93671e-37
1.28952e-36
8.31715e-36
2.9631e-32
3.46641e-30
9.90149e-31
3.7996e-34
4.83768e-35
4.11672e-30
7.43773e-30
6.46409e-30
6.05118e-30
5.57995e-28
2.90132e-23
6.95928e-24
2.77073e-25
8.95874e-26
1.7497e-27
2.41639e-33
7.11697e-34
8.332e-28
4.26361e-27
1.67545e-34
2.53094e-35
4.47713e-26
3.77302e-23
1.77269e-12
3.71892e-27
2.33216e-27
6.43773e-12
6.45701e-28
6.15913e-28
8.14107e-12
9.23811e-28
8.65538e-27
1.67868e-34
1.03729e-24
8.05693e-22
3.17962e-19
3.92749e-20
1.9733e-20
1.46509e-20
2.79344e-20
2.14115e-19
5.9111e-19
6.46397e-14
2.46334e-12
2.06411e-10
9.50768e-10
1.27601e-09
2.32036e-09
1.42738e-08
1.86844e-08
2.10889e-07
2.33919e-07
4.74316e-07
4.69752e-07
8.46914e-08
2.9624e-07
3.11929e-07
1.04334e-06
9.89443e-07
2.3884e-06
2.16644e-06
7.97784e-06
2.25116e-05
2.61545e-05
2.07223e-05
2.00195e-05
2.21288e-05
4.63674e-05
9.90153e-05
0.000179388
0.00023501
0.000435078
0.000551989
0.000927256
0.0014808
0.000983637
0.00141515
0.00200413
0.00139094
0.0024089
0.00352639
0.00628207
0.00606428
0.00678548
0.0106822
0.0166015
0.0185733
0.0218456
0.0404009
0.0435362
0.0326842
0.0360868
0.0177485
0.0171722
0.00638645
0.00778774
0.00529273
0.00274237
0.00280703
0.0029261
0.00153899
0.00124299
0.00112156
0.000347188
0.000345936
0.000352969
0.000389323
0.000224103
0.000141716
7.22757e-05
3.47128e-05
2.33121e-05
1.70182e-05
1.45745e-05
3.42031e-06
1.78507e-06
1.00243e-06
3.4339e-07
9.74576e-08
4.64213e-08
5.30125e-08
2.93442e-08
1.54376e-09
2.18772e-09
7.8851e-10
1.40009e-09
3.69922e-10
2.30218e-10
2.80065e-12
5.28186e-14
5.14848e-19
5.29615e-19
3.91515e-25
2.04782e-25
7.97941e-25
6.16348e-20
8.29731e-14
9.22178e-12
4.33671e-11
1.1124e-10
2.58922e-10
3.66946e-10
2.86828e-09
4.05863e-09
5.13505e-10
1.13022e-10
1.31009e-10
1.34988e-10
3.15686e-11
1.6139e-11
1.95527e-13
9.20554e-18
1.15021e-16
1.72609e-13
1.53132e-11
3.70775e-11
1.97872e-11
6.06566e-11
2.54822e-10
2.26382e-09
3.38842e-08
7.5183e-08
2.76746e-07
2.67593e-07
9.17111e-07
9.87063e-07
2.72224e-06
7.52707e-06
1.34104e-05
8.69328e-06
1.77101e-05
3.70456e-05
5.07291e-05
7.40444e-05
0.00013611
0.000282564
0.000283482
0.000517814
0.000405249
0.000857086
0.000904917
0.00205774
0.00388168
0.00558345
0.0112925
0.0132424
0.0213508
0.0435839
0.0814563
0.118546
0.119871
0.201095
0.323706
0.390936
0.486343
0.491153
0.479436
0.482266
0.479889
0.330206
0.33009
0.206596
0.213986
0.212822
0.115656
0.0700247
0.0689292
0.0703233
0.0741111
0.036951
0.0347338
0.0217582
0.0207533
0.00919867
0.00567889
0.00441373
0.00234144