/*--------------------------------*- C++ -*----------------------------------*\
  =========                 |
  \\      /  F ield         | OpenFOAM: The Open Source CFD Toolbox
   \\    /   O peration     | Website:  https://openfoam.org
    \\  /    A nd           | Version:  7
     \\/     M anipulation  |
\*---------------------------------------------------------------------------*/
FoamFile
{
    version     2.0;
    format      ascii;
    class       surfaceScalarField;
    location    "19";
    object      alphaPhi0.water;
}
// * * * * * * * * * * * * * * * * * * * * * * * * * * * * * * * * * * * * * //

dimensions      [0 3 -1 0 0 0 0];

internalField   nonuniform List<scalar> 
43852
(
-4.83878e-05
2.79298e-05
0.00018167
-0.000280533
2.69649e-05
3.03026e-05
6.68348e-05
-7.40627e-05
-3.45107e-05
-8.61064e-06
-7.15497e-06
-0.000100107
0.000177594
-3.93053e-05
2.63229e-05
-3.7775e-05
8.10586e-07
3.88213e-05
-2.1818e-05
1.27061e-05
-1.64691e-05
1.78192e-05
-2.05054e-05
-9.31061e-06
8.81691e-06
-1.08419e-05
1.25137e-05
-6.68982e-06
-1.62761e-06
4.35411e-06
-1.3275e-06
-4.58396e-06
2.1009e-06
-7.41843e-07
5.70976e-07
-6.32057e-07
-1.05131e-06
8.85086e-07
-2.09673e-07
2.26164e-07
2.30621e-07
-3.47271e-07
-4.0548e-07
-1.7043e-07
1.77938e-07
6.83845e-08
-2.14591e-08
-1.61727e-07
-7.59617e-08
1.91189e-07
1.62363e-08
1.00087e-08
-7.68377e-08
-2.22401e-08
-1.91023e-07
5.16204e-07
-1.85526e-07
6.83197e-07
-9.40091e-08
-7.37482e-08
1.50468e-08
-2.21021e-08
-5.86348e-08
1.10938e-07
-6.4155e-08
8.62117e-08
5.73247e-08
-1.09747e-08
1.96505e-08
-1.91433e-08
1.80008e-08
4.27129e-08
-7.36995e-11
-1.72773e-10
5.95026e-08
6.90576e-08
5.98811e-08
-1.47542e-09
1.44143e-08
9.99612e-09
-7.43698e-21
-1.25735e-13
2.9983e-12
-7.81702e-12
-1.06458e-11
-5.64036e-31
-4.13571e-28
-1.42735e-21
4.37104e-22
-4.78946e-24
-1.25919e-31
1.68487e-32
3.33304e-32
-1.3796e-31
4.05717e-31
4.00115e-29
-4.7917e-31
3.09707e-28
-5.05058e-22
-2.31488e-25
1.7244e-21
-6.64995e-21
2.77119e-20
-2.27513e-25
3.46676e-20
-9.62222e-21
5.62444e-20
-1.99994e-24
4.4074e-20
1.59015e-19
-1.26784e-25
7.27017e-21
9.46794e-20
8.31551e-19
-1.0102e-19
-3.1699e-22
1.37699e-17
3.37063e-14
-1.88914e-11
7.12746e-11
-3.87701e-22
-1.36027e-11
-7.20099e-19
7.75111e-11
-7.83388e-32
-7.85715e-22
-2.00666e-28
-4.36701e-31
7.15747e-21
1.9592e-34
-2.63374e-32
6.77421e-32
-1.62172e-32
-1.71402e-32
1.06452e-31
-3.66989e-33
-8.37659e-33
-7.24437e-35
4.62677e-32
-3.07588e-31
1.03989e-33
-2.54782e-33
1.00295e-30
-1.05486e-34
2.0093e-31
-4.69094e-34
-5.34358e-32
0
2.16299e-35
-4.47081e-35
-1.11628e-37
3.39737e-34
3.9304e-36
2.76983e-35
-4.03142e-38
7.83977e-35
5.44667e-37
3.3453e-36
-1.34939e-38
1.04562e-35
-2.63637e-38
8.04986e-37
-3.01334e-39
2.52496e-36
-1.41113e-36
4.84189e-37
-1.89356e-39
1.58457e-36
4.18512e-36
-6.57922e-37
1.13089e-35
-1.60739e-35
-3.81398e-32
-3.66616e-33
-1.06905e-35
0
5.60518e-32
0
8.58088e-33
9.92359e-34
0
-1.41771e-31
4.69895e-31
-1.50955e-32
-2.4319e-32
1.59e-31
0
2.77358e-32
0
-2.28415e-35
-1.00388e-36
-3.72071e-37
-1.64724e-31
-1.36422e-35
0
-1.99792e-37
-1.00863e-34
2.43654e-36
1.09768e-34
-6.42491e-36
-5.68867e-38
4.13266e-36
-4.77205e-35
5.36996e-35
4.88772e-37
3.08383e-34
8.11463e-36
3.39502e-33
7.8079e-35
-2.00546e-39
4.9978e-35
1.96796e-34
4.16531e-36
3.14213e-37
2.39662e-38
-2.24444e-37
1.20872e-36
-8.96528e-32
-6.68012e-33
6.0539e-38
0
-5.49913e-33
0
4.17629e-32
3.20361e-32
-6.29325e-34
0
4.52897e-32
1.74804e-30
-2.16401e-25
1.01916e-24
-1.19002e-32
7.93672e-24
1.90296e-34
-1.32094e-33
9.0379e-33
1.65266e-31
7.45052e-33
0
-1.35558e-36
-9.0141e-37
-1.68781e-37
-1.88962e-33
-2.73592e-37
3.49602e-31
2.4946e-37
-8.44384e-37
5.28353e-36
-4.83182e-40
-3.66428e-37
7.74165e-38
4.04914e-36
2.71816e-37
1.40934e-37
7.49837e-36
5.35249e-37
3.94309e-37
-5.71721e-39
3.80961e-36
2.51234e-37
7.23155e-37
-5.42491e-39
1.94714e-36
3.1099e-37
-3.564e-41
1.0463e-36
1.90567e-38
5.02178e-34
-1.53547e-32
-3.73206e-38
6.6052e-31
-5.7324e-34
1.73765e-31
1.05801e-33
-1.81176e-32
-2.3749e-35
9.15857e-32
6.10331e-27
4.57255e-25
1.76833e-26
-4.44319e-35
5.62563e-26
8.77659e-30
1.66601e-22
7.23663e-20
3.15091e-20
2.10942e-20
-3.50091e-25
-3.00926e-21
3.49532e-18
-6.98671e-20
-3.98343e-20
-5.39336e-20
3.71467e-17
3.99466e-13
1.24361e-09
-4.99835e-21
-4.79297e-21
8.34976e-10
-2.32814e-20
-4.69763e-20
1.18475e-17
2.81534e-22
-5.47577e-21
2.89166e-20
-1.84531e-25
-1.97263e-29
9.68426e-22
-1.85636e-25
-1.36312e-32
-1.87571e-31
1.51584e-28
-1.48993e-31
2.89403e-31
-1.03795e-32
-2.10111e-31
4.69376e-31
9.82952e-33
-8.25707e-32
-1.0203e-32
0
1.66932e-33
-3.04755e-34
-5.00103e-35
4.37336e-32
-2.40978e-31
0
-1.2268e-34
3.64866e-35
-3.45015e-37
8.41056e-34
-9.22329e-37
-7.21175e-37
2.46316e-33
7.99823e-34
5.25877e-37
5.32208e-35
-9.30756e-39
1.75265e-35
-3.9447e-37
1.40029e-33
6.46682e-36
4.88899e-37
1.69137e-35
-1.94615e-39
4.70202e-30
4.72153e-31
3.70098e-32
1.74489e-29
3.34419e-27
-5.1568e-30
4.09206e-27
3.4326e-26
5.9796e-27
-3.40384e-29
6.19942e-27
2.69219e-27
5.40678e-27
1.29677e-26
-2.31092e-28
3.59618e-25
4.91713e-24
-8.59829e-30
5.20443e-28
4.09504e-30
-1.79926e-29
7.41025e-29
5.01212e-29
-4.39659e-29
2.6815e-28
1.24305e-27
-2.02742e-28
1.1821e-26
-2.35843e-29
-5.04696e-27
3.87825e-25
-1.40121e-37
-8.83619e-32
3.39458e-28
2.99228e-38
3.01663e-38
4.62947e-37
3.6681e-37
1.00847e-37
5.19644e-36
-1.78563e-49
-7.95885e-35
4.02052e-34
7.46522e-50
1.67883e-50
7.4791e-49
1.55774e-37
2.80752e-38
1.70178e-36
-6.47418e-36
-2.84199e-34
4.32073e-33
-9.6595e-38
-4.98517e-36
1.63971e-34
-2.26349e-42
-1.92692e-40
6.1925e-36
2.37801e-42
-1.07206e-41
1.38166e-41
6.15909e-43
1.35876e-43
5.99537e-42
-2.94583e-39
-5.33452e-39
1.7386e-37
-1.11758e-40
-7.89698e-39
1.60821e-37
-2.24215e-41
3.56061e-41
5.96833e-40
2.41791e-41
-6.20605e-41
1.1598e-40
1.10155e-34
-3.03331e-40
2.30247e-34
1.47194e-34
-1.55189e-39
5.40374e-32
-8.74114e-35
-5.44801e-39
9.94484e-32
-6.34489e-41
-1.6169e-39
5.62926e-34
-3.46377e-44
9.53882e-42
4.13493e-40
-1.05365e-47
1.47294e-44
2.64438e-43
5.39969e-47
1.0204e-47
1.7627e-46
-8.78573e-43
-1.43782e-40
9.18539e-40
-3.76812e-52
1.37025e-43
2.23136e-41
2.31802e-51
5.03929e-52
7.56116e-51
7.27928e-41
1.23058e-39
-1.02105e-41
-1.02974e-37
1.1548e-29
-1.02179e-31
-4.15762e-47
-1.02081e-40
7.28808e-37
3.74179e-47
-1.04987e-46
2.49998e-46
2.89101e-47
5.54971e-48
7.82855e-47
9.78718e-45
0
-2.25576e-46
-2.01466e-45
3.04753e-42
-7.5522e-45
-6.40055e-46
2.39039e-44
-1.29802e-46
-7.26229e-46
1.5249e-45
1.05137e-46
3.49185e-46
5.12332e-45
-1.79821e-45
1.38875e-44
7.76509e-44
-2.29859e-44
3.57938e-44
-6.41481e-44
3.23394e-43
-1.34851e-39
3.31702e-34
-1.11894e-35
-6.95464e-45
1.93537e-38
-1.49615e-39
1.45244e-45
1.48673e-45
2.29125e-44
8.79794e-41
1.96248e-41
1.221e-39
-8.64577e-46
1.82414e-36
-1.54578e-37
3.5273e-46
3.60292e-45
8.52785e-47
1.0252e-38
1.60174e-39
1.13712e-37
-4.75198e-37
2.34775e-33
-1.31077e-34
-2.77419e-39
1.19139e-35
-2.26678e-37
-7.53557e-42
1.66424e-37
-1.34324e-38
8.39532e-42
-2.27831e-41
4.79634e-41
2.40852e-42
5.59534e-43
1.85263e-41
-3.63552e-41
7.20895e-39
-3.95176e-40
-6.7959e-43
7.34418e-39
-2.05647e-40
-2.68456e-42
1.92639e-43
5.68522e-42
2.72399e-42
-9.69944e-42
1.41583e-41
-1.27365e-38
4.37757e-36
-1.44709e-39
1.85098e-37
1.88855e-36
-6.72006e-38
-7.03431e-39
5.9203e-35
-4.32167e-36
4.78174e-40
6.65066e-38
5.49031e-40
1.50523e-39
2.92748e-40
6.59304e-39
-1.47898e-29
2.57796e-28
-3.01594e-29
-7.02117e-29
-6.40325e-29
8.78179e-28
-6.6618e-29
-3.95483e-29
3.23785e-28
5.04089e-29
-2.01343e-28
6.27616e-28
7.84981e-28
6.42407e-30
3.09346e-27
-7.01228e-25
-8.7635e-26
9.62411e-24
3.06939e-25
-3.25088e-24
4.524e-23
2.88062e-25
-1.90737e-27
1.86323e-24
4.75338e-25
8.67762e-26
1.06346e-24
5.46124e-24
4.46444e-23
-1.08143e-25
-1.3712e-23
1.4802e-20
-1.72813e-22
-1.53467e-26
1.36698e-22
-1.27455e-25
-9.90818e-28
3.09839e-27
4.3096e-26
1.16302e-27
-2.79975e-27
6.82659e-27
2.59122e-27
1.8488e-26
1.84847e-28
-1.9345e-25
-1.0363e-24
2.32636e-23
-6.77252e-25
3.8918e-24
-4.28107e-48
-1.65299e-38
6.21361e-38
7.38223e-49
9.40341e-49
1.50551e-47
9.01091e-42
1.41601e-42
1.10363e-40
-1.51051e-49
-1.43082e-37
1.29625e-36
6.37164e-50
1.26632e-50
5.74907e-49
1.41419e-37
2.21036e-38
1.79627e-36
-5.02806e-37
-2.99288e-34
5.61027e-33
-5.86603e-39
-2.96153e-37
1.49315e-35
-5.2534e-42
-2.68273e-38
2.28787e-37
5.2563e-42
-1.60751e-41
3.17491e-41
1.21148e-42
2.14804e-43
1.19941e-41
-2.53026e-42
-2.1673e-40
6.68554e-40
-5.97977e-43
-3.61099e-41
1.25099e-40
-1.42813e-42
1.85219e-43
3.11887e-42
1.47902e-42
-5.3873e-42
7.24155e-42
2.64872e-41
-2.17734e-41
5.67017e-41
-5.9693e-43
-9.14933e-41
4.52476e-40
-3.19603e-41
-7.82093e-41
9.05192e-40
-2.61788e-44
-3.36392e-41
1.99685e-40
-6.38436e-52
4.38135e-45
1.54521e-43
-9.59939e-56
2.78842e-52
4.79427e-51
0
7.38827e-56
1.35726e-54
-4.63789e-35
-1.9483e-35
8.80642e-34
-5.55922e-36
7.66997e-36
8.92762e-34
5.17774e-35
1.34633e-35
1.92375e-34
1.04896e-29
-3.45718e-32
1.10679e-28
-1.01411e-28
-2.11101e-27
1.02498e-25
-3.95103e-29
2.16612e-30
5.44062e-28
2.98655e-29
-9.46607e-29
3.39956e-28
5.68829e-28
8.63574e-29
1.35095e-27
4.38254e-25
-4.69065e-27
7.36739e-24
-9.04984e-24
3.49247e-21
-8.75573e-27
-2.5265e-25
4.97627e-23
-9.35097e-27
2.29677e-26
-5.08029e-27
1.0139e-26
-4.78798e-30
6.31477e-27
5.76433e-26
-9.07798e-29
3.16256e-28
2.39512e-27
-2.01392e-29
4.87739e-28
-5.47515e-30
3.6042e-27
-2.89727e-32
-1.96199e-29
3.66589e-26
-1.48677e-33
1.56592e-31
-3.39935e-34
2.42034e-33
3.96302e-34
8.20011e-34
-5.21743e-36
1.20522e-32
2.11499e-34
-8.99627e-40
1.05411e-32
-1.15447e-41
1.07116e-33
-1.4958e-41
2.60378e-41
4.9525e-40
4.5132e-41
-4.0524e-39
6.03335e-39
1.25775e-40
-4.28535e-40
1.3916e-39
6.64059e-41
-5.97916e-41
3.59092e-40
4.58401e-41
4.02312e-41
-3.10096e-42
5.602e-42
-5.68019e-41
6.76945e-42
-4.78502e-41
1.33511e-41
3.95735e-42
-7.44401e-41
2.57229e-40
2.50369e-40
-9.21361e-40
-3.41396e-40
1.26227e-39
1.53376e-40
-5.00119e-40
9.79176e-40
1.85788e-41
3.10192e-40
-5.48505e-40
1.28814e-39
-1.46614e-39
-6.30963e-40
5.9164e-39
2.27094e-40
-1.99133e-39
-2.8324e-39
1.04878e-38
1.5278e-40
4.66498e-40
-2.04531e-38
1.64563e-37
3.23772e-38
-2.75514e-39
-3.21519e-39
3.77756e-37
6.83827e-38
1.332e-36
-1.91711e-34
2.60986e-33
-3.56037e-36
-4.65922e-39
2.61112e-33
1.33396e-37
-2.47035e-38
-1.9943e-38
3.46903e-35
3.91522e-37
9.91563e-37
-3.53415e-37
8.3951e-36
-4.82263e-38
-2.74544e-37
1.00221e-35
2.78613e-38
6.24645e-38
-1.08254e-37
1.02665e-36
3.67266e-38
6.08904e-38
7.88408e-38
-1.51468e-42
8.02742e-37
1.24961e-43
2.85636e-43
5.32219e-42
-5.01094e-38
2.21546e-38
6.2022e-37
-1.35451e-38
2.97256e-36
1.78625e-38
-7.911e-38
1.34357e-37
7.3416e-39
1.53902e-38
-5.87751e-38
1.19008e-37
-7.27287e-39
4.63081e-38
5.82908e-39
-1.06594e-38
-1.44473e-38
3.77609e-38
-9.99352e-39
2.66745e-38
8.70602e-39
-2.44186e-38
-1.57931e-38
4.95826e-38
2.73746e-39
-3.34339e-39
1.58804e-38
-1.03061e-39
6.64463e-39
-3.20211e-39
-1.4823e-39
5.64929e-39
-1.1118e-38
-2.82378e-39
1.64651e-38
-7.0916e-38
-3.6344e-38
1.05444e-37
8.35762e-38
-8.93458e-38
-1.71666e-36
2.88905e-37
4.29235e-40
8.29029e-38
-1.01387e-36
1.54227e-36
3.02235e-37
6.47242e-36
-6.49877e-37
1.91778e-37
8.6609e-36
6.48794e-36
4.96511e-38
6.94739e-35
-4.53944e-40
3.77282e-37
1.50582e-36
-3.76195e-37
9.6945e-39
1.12505e-37
4.4005e-37
3.84883e-38
9.3063e-38
8.08242e-40
4.11411e-36
3.7942e-37
2.68424e-38
-1.01209e-36
3.24852e-36
4.01776e-38
-1.49356e-40
2.12641e-37
8.32909e-37
-2.59185e-37
1.68983e-38
2.001e-37
8.98221e-37
2.29213e-37
1.08825e-37
5.53868e-36
-5.10745e-37
1.31784e-37
-4.84851e-39
9.29816e-37
9.90836e-38
3.34513e-38
-3.75802e-39
1.02568e-37
2.63207e-37
3.12507e-36
-1.35477e-36
4.6414e-35
1.44207e-34
-6.69282e-36
-7.04497e-36
3.82264e-33
1.15324e-32
-1.37949e-37
1.48588e-34
1.0037e-36
1.14856e-37
3.08443e-36
-4.95608e-37
1.32398e-30
2.60513e-29
-5.27751e-30
-3.10291e-35
1.65565e-28
1.94069e-36
1.12294e-34
-2.47126e-40
3.03638e-35
-5.46772e-39
9.74936e-39
7.32328e-39
-4.2205e-38
5.95941e-38
3.06419e-39
-1.37873e-38
2.61171e-38
4.33655e-40
-1.03879e-39
5.40463e-39
-3.59331e-40
1.15944e-39
-1.5847e-39
-8.78318e-40
2.4364e-39
-6.11641e-39
-4.10497e-39
8.44437e-39
-2.46443e-38
2.69012e-38
2.9543e-38
1.03221e-37
2.61015e-39
2.17577e-38
-3.14289e-39
5.94026e-39
-2.59449e-38
6.4022e-38
1.51886e-37
0
9.77249e-34
1.34384e-33
-4.53218e-19
-6.21346e-15
2.32811e-13
1.11463e-14
1.30556e-14
-6.68779e-20
-3.1467e-34
-9.01961e-34
-1.26887e-33
2.83434e-15
-1.08388e-18
1.91424e-14
1.56156e-14
-1.20016e-13
-2.52712e-34
7.30115e-19
1.80695e-19
4.8373e-18
9.41156e-19
3.08687e-35
3.57462e-35
-2.26313e-34
-5.34888e-37
1.73222e-24
1.40408e-24
1.28355e-23
-1.58455e-37
2.27685e-24
1.06399e-24
1.0559e-23
-1.59172e-37
1.2684e-24
8.6464e-25
7.64484e-24
-1.48496e-35
1.73503e-24
2.95057e-25
3.11013e-26
-1.88662e-40
-3.15202e-25
2.63471e-24
-1.36037e-26
-3.1967e-26
1.68291e-25
1.09856e-26
-1.50265e-40
1.15801e-24
1.75062e-28
3.72887e-26
1.29426e-17
-1.50831e-19
-1.01404e-17
5.33266e-19
5.05951e-16
-3.64161e-18
2.25518e-17
-8.81227e-17
3.21407e-16
-2.22596e-16
3.42599e-16
4.11441e-16
4.75754e-15
-2.01466e-16
7.4606e-17
-1.20069e-15
2.08351e-13
3.07874e-15
4.95197e-15
-3.30583e-15
4.34632e-12
5.75429e-14
-2.01819e-14
2.64867e-13
2.25429e-12
-1.97549e-12
3.86394e-12
3.19468e-12
1.66368e-11
-2.30692e-12
1.35214e-12
1.56517e-13
1.14114e-10
3.7332e-12
1.4974e-11
-5.95468e-12
6.00618e-10
-3.14373e-11
-1.23896e-11
8.73871e-11
1.12481e-09
1.99002e-11
6.18209e-10
-1.14286e-10
7.95813e-10
-6.12728e-10
5.15896e-10
1.08816e-09
2.63358e-09
3.40648e-12
-4.56244e-10
8.9403e-11
1.49696e-08
1.33799e-09
-1.54988e-09
-4.90382e-09
5.34393e-08
-7.97246e-09
-7.43174e-09
3.83714e-09
8.58512e-08
-3.68584e-08
7.00586e-08
-9.76486e-09
3.34773e-08
-9.68035e-08
1.14648e-07
7.32576e-08
7.78762e-08
-5.78203e-08
4.37514e-08
2.73073e-08
2.17876e-07
-7.51759e-08
9.92045e-08
-5.36626e-08
6.48661e-07
1.82764e-07
-3.34439e-07
3.09033e-08
5.67874e-07
-1.5784e-08
1.44312e-07
2.41203e-07
5.56636e-07
-6.9477e-07
-3.95389e-08
1.38905e-06
8.86254e-07
-3.40497e-08
-2.65737e-07
3.62529e-07
4.55038e-06
6.90615e-07
-2.14479e-07
-1.63301e-06
1.363e-05
2.78631e-06
-4.19954e-06
-2.9102e-06
2.61888e-05
2.22417e-07
9.85478e-06
-6.73307e-06
2.70928e-05
-2.89194e-05
-1.99484e-06
4.24762e-05
5.67029e-05
8.59427e-07
-8.98758e-06
1.37326e-05
7.08687e-05
5.02358e-05
-3.39499e-05
2.25919e-06
0.00014371
8.15106e-05
-1.86971e-05
-8.15849e-05
0.000165011
8.71098e-05
-7.25344e-06
-2.81017e-05
6.08277e-05
-7.16152e-05
0.000101402
0.000113416
8.74595e-05
9.73041e-05
-4.35838e-05
-4.81077e-05
0.000403118
-9.5656e-05
2.81307e-06
-9.31468e-05
-1.99215e-05
3.3787e-05
-0.000113962
-0.000397214
-2.03239e-05
-0.000158995
0.00021148
-0.00035382
-0.000433498
0.00027002
-4.49767e-05
-8.63955e-05
-0.000549186
-0.000159998
-0.000100647
-0.000270396
3.01773e-05
-4.67784e-05
-6.09467e-05
-0.000277856
6.99373e-06
-0.000314038
-0.000130723
-0.00016555
0.00013589
-8.75964e-05
-0.000112837
-0.000142104
0.000169386
-2.69564e-05
-7.69015e-05
2.30572e-05
-5.45214e-05
6.2946e-05
1.32192e-05
-1.09028e-05
2.87338e-05
4.09028e-06
3.5623e-05
-5.54882e-06
-2.11846e-05
-4.43218e-06
9.27807e-05
4.15431e-05
-4.08129e-05
9.80013e-05
-2.45651e-05
0.000193753
-5.77395e-05
-7.79244e-05
0.000128178
0.000169891
5.79495e-05
0.000101927
-7.44243e-05
0.000261484
-6.78496e-05
-3.72302e-05
0.000105287
-9.40271e-05
0.000170796
3.54156e-06
-0.000205073
4.65171e-05
4.10912e-05
-9.64016e-05
7.42416e-05
0.000196849
-0.000141142
-0.000142606
-5.64543e-05
0.000306733
5.30546e-05
-0.000106628
-7.42315e-05
0.000114127
-6.83401e-05
5.95983e-05
-0.000105691
-2.25989e-05
3.63553e-05
-2.42612e-05
5.56263e-07
6.44205e-05
-1.3536e-05
5.57664e-06
9.89363e-06
-4.46496e-06
-1.44994e-05
-8.79203e-06
1.40614e-05
-1.70007e-05
-6.38148e-06
-1.09513e-05
-9.9923e-06
1.17346e-05
-6.11666e-06
-2.26685e-05
6.42297e-06
-8.08508e-06
-3.6134e-07
-1.2151e-06
-1.96386e-06
6.32227e-08
-2.2349e-06
3.99521e-06
-1.31807e-06
-2.8952e-06
-1.35225e-07
8.6252e-06
1.56452e-06
-2.16809e-06
-3.78948e-07
2.66585e-06
4.79844e-06
3.45474e-06
-1.45653e-05
8.08721e-06
2.32274e-06
-3.56444e-07
4.47533e-06
4.34156e-07
-4.56919e-06
-3.56321e-06
1.59145e-05
-7.97355e-07
-7.43663e-06
-7.07045e-07
1.09928e-05
1.37759e-07
1.36175e-05
-8.74841e-06
-5.94952e-06
-1.38403e-06
8.42156e-07
-2.1153e-06
-2.00478e-06
5.54783e-06
3.58864e-06
2.05743e-06
-4.55744e-06
5.15482e-07
-1.37868e-06
-6.89739e-06
4.73635e-06
-2.13981e-06
-2.61581e-06
-9.10666e-07
2.66617e-06
-9.1201e-07
-1.85169e-06
3.76998e-07
-1.83314e-06
-1.91935e-07
-2.66251e-07
-6.58019e-07
3.73343e-07
-6.06883e-07
-3.5782e-07
-3.65976e-07
-1.76345e-08
1.66745e-07
-2.01757e-07
1.18773e-08
-2.12153e-09
-1.04217e-07
6.37062e-09
9.06822e-09
2.3922e-08
-3.11899e-08
2.07191e-07
7.35717e-09
-9.13783e-08
2.43334e-07
-3.239e-07
6.43559e-07
1.05382e-07
-1.2881e-07
-9.17708e-08
3.19866e-07
-2.41831e-07
-7.91164e-07
1.27099e-07
-3.14782e-07
-3.72308e-07
1.62911e-07
-1.86066e-07
-3.62563e-07
-9.35168e-08
5.24769e-08
-1.36319e-07
-1.04922e-07
5.57342e-08
-3.19979e-08
-3.37109e-08
-3.10848e-09
6.77044e-09
5.02626e-09
-2.6532e-08
1.47383e-08
-5.43476e-08
2.94726e-08
7.43197e-09
-5.39296e-08
6.78597e-09
-8.60631e-09
-6.12994e-08
-2.31669e-08
-1.79437e-08
-7.95995e-09
-1.70365e-08
-4.14487e-09
-4.56677e-10
-5.45156e-09
5.15257e-09
-3.48314e-09
-3.68567e-09
2.90851e-09
3.28358e-08
-4.63844e-09
-3.6837e-09
-6.49429e-09
-4.88917e-09
1.01261e-08
-8.15655e-10
-6.54791e-09
-6.52982e-09
3.69829e-09
-5.93052e-09
-9.76383e-09
-4.08919e-09
-3.07172e-09
-4.64273e-09
-2.09201e-09
-7.57053e-10
-1.21557e-08
-5.8931e-09
9.30954e-09
-7.07672e-09
-1.67098e-10
9.65933e-10
-1.69535e-09
-9.94411e-10
1.70005e-10
6.87161e-10
-6.32579e-10
-9.16966e-10
6.21203e-10
-8.86531e-10
-2.24527e-10
-2.09095e-10
-1.9979e-10
1.90638e-10
-1.64274e-10
-3.11972e-10
-6.73868e-12
-7.22629e-11
3.40874e-11
-1.37818e-11
-1.02596e-11
1.97179e-12
-3.16668e-12
8.6034e-12
-1.16773e-11
-9.81382e-12
1.15424e-11
4.27696e-11
-2.33699e-12
-1.96299e-12
4.33302e-11
-2.52656e-11
1.86067e-10
1.48343e-11
-4.17299e-11
-1.45717e-13
1.13952e-10
2.15131e-11
-1.60148e-10
4.68708e-12
-3.08265e-11
-5.16513e-11
1.36974e-11
-1.70548e-11
-6.23579e-11
-5.51946e-11
6.05296e-11
-2.12889e-11
-5.10994e-12
9.55321e-12
-3.28291e-12
-2.72133e-12
-9.0592e-13
3.36247e-12
-3.27252e-13
-2.5647e-12
6.15075e-13
-2.11171e-12
-4.79809e-14
-2.79516e-13
-3.04605e-13
1.24398e-13
-3.70105e-14
-2.37268e-13
3.57511e-14
-1.29355e-14
8.42982e-15
-5.09273e-15
-5.21714e-16
-2.33815e-15
-2.41741e-15
4.40641e-16
-8.13754e-16
-1.65966e-16
5.79307e-16
7.08964e-14
-2.3805e-14
-2.58155e-16
3.80464e-14
-7.94131e-15
4.22606e-13
6.1694e-15
-8.98464e-14
-2.12854e-14
1.35602e-13
-1.74602e-14
-3.51533e-13
-1.15011e-13
-7.39845e-15
-8.27714e-14
-1.05263e-14
-2.20543e-14
-9.79838e-14
-8.18331e-14
1.02769e-13
-3.63713e-15
3.02822e-15
-1.61504e-15
-1.92108e-16
-9.22368e-19
-1.16458e-16
4.80651e-16
-2.10025e-17
-6.52715e-19
6.27104e-18
-4.53267e-18
-4.57831e-18
-5.48904e-17
-7.88721e-18
-3.50906e-17
-3.51926e-25
-1.67548e-19
-8.15355e-18
-2.83666e-42
-2.33821e-35
-9.26579e-26
-4.69045e-43
1.37916e-42
5.26603e-42
2.68636e-42
0
-2.57778e-37
-2.91334e-20
-3.90688e-18
-4.61078e-40
4.9411e-21
-7.60588e-19
2.56057e-41
1.70187e-40
0
2.28911e-37
-5.15075e-19
-4.97082e-19
7.09584e-18
9.79161e-19
-7.21122e-28
-8.00753e-18
2.41273e-18
-7.65369e-19
3.05888e-18
2.50005e-18
3.91351e-16
5.32119e-18
-3.34277e-17
-1.00586e-16
1.09152e-13
-7.25409e-16
-2.31988e-14
-9.84845e-16
6.18688e-13
9.95107e-14
-1.53386e-14
2.96611e-12
2.17111e-13
-1.08197e-14
1.89216e-12
-1.6566e-12
2.32765e-12
2.04833e-12
8.1948e-12
4.28209e-13
-6.07326e-13
-1.15994e-12
1.0091e-10
1.03774e-12
-1.97504e-11
-1.87311e-12
3.70795e-10
4.45756e-11
-3.95462e-11
1.03193e-09
4.84334e-11
-9.55532e-12
5.4469e-10
-6.07812e-10
8.13903e-10
7.21802e-10
1.39783e-09
-4.32073e-12
3.47748e-11
-8.59862e-11
5.90644e-09
-1.74781e-10
-1.55557e-09
2.86901e-10
1.12661e-08
1.52984e-09
-1.96341e-09
1.44001e-08
1.34614e-09
-1.22921e-09
1.0385e-08
-8.4472e-09
4.63508e-09
1.23747e-08
3.95392e-08
9.92664e-09
-1.39873e-08
5.03234e-11
3.45331e-07
2.9468e-08
-7.13708e-08
-8.08994e-08
1.21305e-06
1.67109e-07
-2.74627e-07
2.83543e-06
3.56039e-07
-5.25256e-07
1.99697e-06
-1.30688e-06
1.51208e-06
1.7315e-06
4.34508e-06
1.54209e-06
-6.33452e-07
-1.04673e-06
9.15818e-06
6.0857e-06
-3.64026e-06
-2.51935e-06
2.5898e-05
1.48603e-05
-1.50511e-05
-2.71585e-06
4.08626e-05
3.40829e-05
-1.2771e-05
6.4417e-05
3.70359e-05
6.09198e-06
6.5093e-05
-6.12223e-06
4.15078e-05
1.3802e-05
7.08879e-05
8.50004e-05
-3.90184e-05
-2.70996e-05
0.000153663
0.000222368
-0.000170247
-7.13586e-05
0.000225154
0.000205934
-8.59017e-05
0.000416942
0.000123106
-1.78941e-06
0.000193193
-0.000110012
-0.000457936
0.000141073
-0.000186242
-0.000148695
-6.49531e-05
5.9e-05
-0.000161102
-0.000166799
7.83884e-07
1.06184e-05
7.40205e-06
-5.44195e-06
3.11744e-05
2.03985e-06
-0.000147777
0.000167806
3.83608e-05
-4.23478e-05
0.00041006
0.000185478
-0.00031242
-9.87845e-05
0.000641282
0.000176975
-0.000150869
0.000192932
-0.00017494
-0.000373676
6.54784e-05
-4.58974e-05
-0.0001172
5.44651e-05
-1.94378e-05
0.000287474
-0.000106382
-0.000488324
0.000288166
0.000439561
6.24771e-05
-4.62789e-05
0.000112634
-1.66142e-05
0.000110623
-0.000566727
-3.79409e-05
6.41127e-05
-0.000171609
1.31852e-05
-8.43816e-05
-0.000734277
-0.00063604
0.00015393
-8.49675e-05
-0.000406863
0.000162618
-0.000121155
-0.000282473
-0.000142287
-0.000162001
-0.000201172
0.000231705
-7.32342e-05
-0.000223859
-6.73221e-05
0.000105676
-0.000280288
-5.04577e-05
-0.000233691
-3.01224e-05
0.00021155
-9.536e-05
-0.000333727
-1.97931e-05
-0.000113957
-0.000377285
-0.000117008
0.000182361
-0.000184097
-8.9834e-05
-0.000151287
0.00027321
-6.88204e-05
-5.67113e-05
8.66098e-05
-5.29127e-05
-6.46509e-05
-3.63845e-05
6.93548e-05
-1.12825e-05
-5.33015e-05
3.66759e-05
-1.22157e-05
1.71766e-05
7.17729e-06
3.10457e-05
-3.28288e-06
-3.9352e-05
2.07843e-05
3.31228e-05
-7.08341e-06
-1.65073e-05
-1.30403e-05
1.15282e-05
2.72727e-05
-2.15072e-05
-2.67497e-06
4.95597e-05
2.11845e-05
-5.41483e-05
7.12937e-05
2.08376e-05
-3.10961e-05
-1.07893e-05
2.04917e-05
-7.47401e-05
-5.20915e-05
0.000135982
5.28274e-05
-0.000130016
0.000121697
9.85381e-06
-0.000118993
-6.16757e-05
-0.000173571
0.000110696
0.000176682
-5.64328e-05
-4.21491e-05
-6.02458e-05
4.00625e-05
-1.08971e-05
-4.36784e-05
6.36394e-06
1.55147e-05
5.40007e-06
-8.84146e-06
-2.26506e-05
1.27285e-06
-7.62829e-06
3.56619e-06
4.13855e-06
-3.91319e-06
4.79284e-06
-2.04361e-05
1.42142e-05
-5.67087e-06
-1.89254e-05
-1.58452e-06
-6.7879e-06
-4.8041e-06
1.02628e-05
-1.86335e-06
1.16155e-06
-7.72061e-07
-2.70119e-07
-1.97834e-07
-1.22826e-07
-3.11459e-07
-4.56649e-07
-1.43332e-07
6.21078e-09
8.58602e-09
-8.16081e-08
-3.74743e-08
3.64208e-08
6.10725e-08
-1.02401e-07
-3.95796e-08
-1.29342e-07
-9.83059e-07
2.02553e-07
1.77387e-07
8.4806e-08
-2.20252e-06
1.09582e-07
-1.08866e-07
-3.04418e-06
6.84526e-07
-7.85775e-07
-2.25451e-06
3.29905e-06
-3.63999e-06
-2.37229e-06
-6.33729e-06
5.39762e-06
-1.95252e-06
-3.26658e-06
1.21849e-05
-2.48577e-05
9.1206e-06
1.46737e-05
-1.70262e-06
-1.83719e-05
5.51457e-06
-9.37024e-06
-1.42644e-05
1.01035e-05
-9.29849e-06
-2.54294e-05
-3.00104e-05
1.69157e-05
-2.431e-06
-1.07946e-05
-1.35523e-05
5.99785e-05
-4.79793e-05
-4.62197e-05
0.000194623
-8.03941e-05
0.000185623
0.000299312
-9.66759e-05
-5.19102e-05
0.000323531
0.000343028
-6.85493e-05
-0.000107207
0.000274208
-0.000288075
0.000374211
0.000224381
-7.20686e-05
0.000127524
0.00011491
0.00016416
-2.73572e-05
-0.000268692
0.000173195
0.000178901
0.000218356
-3.32211e-05
0.0003151
0.000303851
-4.05639e-05
0.000345434
-9.02384e-05
0.000485321
0.000325685
-0.000256639
-3.96829e-05
0.000747955
0.000239541
-8.75772e-05
0.000912629
0.000348538
-0.000153479
0.00104911
0.000425736
-0.000198101
0.000633523
-0.000366926
0.000503657
0.00035193
0.000194475
-0.000315011
-0.000356195
-0.000673426
0.000136875
-0.000491033
-0.000393999
-0.000183694
0.000181854
-0.000179575
-0.000464411
0.00020256
-0.000208572
9.32058e-05
9.18801e-05
0.000159824
-4.84281e-05
-0.000650032
0.000464758
8.76596e-05
7.22531e-06
-5.07122e-05
0.000157373
-5.83219e-05
3.88671e-05
0.00059568
-1.92454e-05
-0.000341821
-2.79962e-05
-0.000520107
-0.00118706
-5.72819e-06
-0.000194516
-0.00108374
-4.64765e-06
4.2384e-05
-0.000730941
-5.99724e-06
7.37123e-05
-0.000341191
-0.00018433
-6.29323e-06
-2.2053e-05
0.000173051
-0.000528222
-0.000117669
0.000246001
-0.000560354
0.000652833
-0.000363892
-0.000738461
0.000144076
-0.000434493
-0.000102497
-0.000175927
0.000259402
-4.16387e-05
-0.000252517
-2.07483e-05
0.000215854
-3.43447e-05
-6.01546e-05
-6.56519e-05
-3.19447e-05
0.000175318
-2.73751e-06
-8.70872e-05
-1.03612e-05
7.53322e-05
-2.13946e-05
-0.000172467
1.2423e-05
4.97525e-05
-7.5405e-05
-0.00016831
-2.61717e-05
-2.45883e-05
-4.11693e-05
-6.95937e-06
2.40797e-05
-8.9564e-06
-6.52693e-06
-2.22434e-06
1.45883e-05
-6.21991e-06
5.11827e-06
4.29781e-06
1.6492e-06
1.42122e-06
-1.21241e-06
3.15911e-06
-2.68032e-06
9.57333e-06
-4.48055e-06
8.17829e-07
-6.25443e-07
8.85944e-06
8.35191e-06
-1.05565e-06
2.05729e-07
1.86711e-06
2.40523e-06
6.41852e-07
1.8876e-06
4.39267e-07
4.99362e-07
2.26012e-07
3.42369e-07
-2.39517e-07
2.32449e-07
2.26447e-07
-4.27627e-08
1.03074e-06
1.52733e-07
8.18071e-07
1.48303e-06
-5.4686e-07
-2.12306e-07
4.35567e-06
1.07706e-06
8.58627e-06
6.38244e-06
-4.79199e-06
2.29209e-07
6.89019e-06
-1.27394e-06
1.11198e-07
6.94445e-06
1.3174e-05
6.48551e-06
-5.25331e-06
-2.31388e-06
3.84631e-05
1.31504e-05
-5.01597e-06
-1.54693e-05
8.69373e-05
2.03752e-05
-6.6247e-06
3.58713e-05
1.34062e-05
3.09221e-05
5.41505e-05
-7.96691e-05
3.89162e-05
2.57429e-05
-3.0112e-06
-3.46025e-06
2.15867e-05
8.18077e-06
-8.19645e-06
-1.851e-06
8.23082e-05
-2.60376e-05
0.000127051
2.77369e-05
4.4718e-05
9.53398e-05
-6.82349e-05
7.82417e-05
0.000295793
9.33173e-05
-2.14368e-05
8.17003e-05
3.55049e-05
0.000233271
-1.44932e-06
-0.000307895
0.000254522
2.494e-06
-3.96258e-06
0.00018787
0.000126866
-0.000248428
6.3509e-06
0.000727856
-0.000350241
-1.91158e-05
0.00106745
-0.000166785
7.70731e-05
0.00118281
3.61233e-06
3.58563e-05
9.30796e-06
-0.000198054
-0.000157872
-0.000597936
-0.000525769
-0.000679299
-0.000489086
0.000199063
-0.000197903
-0.000178826
-0.000404907
5.48188e-05
-0.000348532
-4.75347e-05
-9.39433e-05
3.20547e-05
-0.000179615
-0.000549768
5.7966e-05
0.000644493
-0.000542742
0.000251485
-0.00074352
-0.000372463
0.000148083
8.9638e-05
-0.000302045
-0.000266459
3.80504e-05
-0.000306105
0.000248716
7.21221e-07
-0.000228713
-9.46227e-05
0.000133598
-0.000230881
0.000135602
-0.00013351
1.37499e-06
0.000133476
-5.84801e-05
-2.85089e-05
6.37874e-07
5.44488e-07
-3.71361e-06
-9.52461e-06
-1.47418e-05
6.94361e-06
1.28147e-06
-2.45034e-06
-4.13229e-05
1.66887e-05
3.02579e-05
-1.90442e-06
1.83349e-05
-2.50833e-05
-5.81028e-06
1.88834e-05
1.86386e-06
-5.0358e-05
7.34212e-06
-2.35977e-05
1.36676e-05
-7.00746e-07
-7.8943e-06
5.99094e-06
-3.17501e-06
-4.32846e-06
-1.71351e-06
1.38858e-06
-1.13365e-06
-1.03787e-07
2.5238e-06
-1.26293e-06
5.5631e-07
-5.37859e-07
-7.99452e-07
-1.05556e-07
6.21793e-07
-4.1916e-07
-1.67687e-06
-2.84998e-07
-6.61737e-07
-2.76172e-07
2.53239e-07
-2.8432e-07
-3.79011e-07
-3.25959e-07
-2.40486e-07
-5.01107e-07
1.66111e-07
3.70728e-07
3.13597e-08
2.71986e-08
-2.80866e-07
3.60622e-08
4.37247e-07
-2.26683e-09
-4.67293e-08
2.4026e-08
3.25198e-08
-4.04349e-08
7.18871e-09
5.83183e-08
2.60452e-08
1.60366e-08
-1.38836e-08
5.31459e-08
1.29546e-08
-6.51619e-09
-6.70809e-09
7.39939e-09
8.04791e-10
-9.16895e-09
2.97585e-09
-4.57292e-09
5.87393e-10
-7.41977e-11
3.59747e-09
-4.45646e-09
-6.63474e-09
5.62629e-09
7.76466e-10
-6.13684e-10
1.47841e-08
-7.94914e-10
-4.5691e-09
-1.46082e-10
3.04777e-08
-2.00904e-09
1.9887e-08
1.77534e-08
3.08793e-09
3.05456e-08
-6.76535e-09
-3.60988e-08
7.94561e-09
9.16876e-08
4.13173e-08
-6.49016e-09
7.02919e-08
6.11976e-08
-6.40086e-08
-1.42772e-08
-3.91805e-08
1.94787e-07
3.21799e-08
-2.75175e-08
-5.98792e-09
-2.68621e-10
9.7268e-09
-7.43584e-09
7.25442e-10
-5.22801e-10
-6.8939e-09
-5.1084e-11
2.39816e-10
-2.10691e-09
-4.4108e-10
-5.29467e-10
-3.46694e-11
5.51425e-10
-1.66038e-09
-2.89479e-09
4.19648e-10
-8.62342e-10
-1.27021e-10
9.48818e-11
-1.14863e-10
-1.44694e-10
-6.4531e-11
-2.81808e-11
-2.11348e-10
2.28998e-11
-4.75231e-11
9.44141e-12
-7.50235e-12
4.52206e-11
-4.83424e-11
-6.21106e-11
6.01517e-11
7.74979e-12
-1.65072e-11
3.17532e-10
2.98503e-11
-8.0349e-11
-2.76922e-11
9.38247e-10
5.61197e-12
-2.64916e-11
4.31601e-10
-4.30225e-10
6.5728e-10
6.32837e-10
1.07263e-09
-1.37134e-10
-3.59822e-11
2.46741e-11
-1.02222e-10
4.44727e-09
-3.5434e-10
-1.01418e-09
6.27431e-11
1.41102e-08
1.03024e-09
2.81595e-10
5.17996e-09
-3.8239e-10
1.0218e-08
2.14401e-09
-7.77864e-09
2.3117e-08
8.10507e-09
-1.42693e-08
1.20816e-07
1.64893e-08
-1.43543e-07
3.23464e-08
9.40362e-08
2.37336e-08
1.36683e-07
1.22332e-07
-1.61558e-07
7.02428e-08
1.32562e-08
5.4567e-08
9.04033e-08
6.2722e-08
3.46583e-10
2.7874e-08
8.14152e-08
-7.11399e-08
5.9241e-08
-1.05966e-07
-2.87432e-08
1.38006e-07
-9.25668e-08
5.04097e-08
1.8128e-07
-5.7402e-08
-5.32381e-07
2.82093e-07
2.90358e-08
3.336e-07
-8.54793e-07
2.94017e-08
1.64493e-07
-2.0972e-07
7.95159e-07
-1.59733e-06
2.14787e-06
9.8834e-07
-1.21557e-06
5.83357e-06
5.15282e-06
-1.21631e-06
1.22122e-05
2.4533e-07
-6.34578e-06
7.65921e-06
5.50577e-06
-3.77131e-06
-7.05099e-06
1.28449e-05
6.06845e-06
1.16107e-05
-2.29753e-06
-8.37179e-08
3.16833e-07
-5.28855e-07
2.20344e-05
5.97573e-07
-1.27276e-05
3.01129e-05
-3.8886e-07
-2.70085e-07
-1.25221e-05
0.00013555
-5.64824e-05
7.6362e-07
-9.07821e-05
0.00013483
4.77823e-05
-0.000125008
-6.64393e-05
7.74829e-05
-0.000218382
-2.17356e-05
0.000182429
-0.00025464
-2.65241e-05
-3.40738e-05
0.000424548
-0.000326873
-3.5519e-05
0.000631422
-0.000242968
-0.000105679
0.000163731
0.000207434
0.000451895
-0.000100299
1.62744e-06
-0.000363293
9.54294e-05
0.000469786
0.000903044
-0.000165992
-0.000742324
-0.000154491
-0.000210816
-0.00020212
0.000437247
-0.000854024
-0.000209753
-0.000159685
-0.000637856
-0.000121298
-6.44664e-05
0.00016801