/*--------------------------------*- C++ -*----------------------------------*\
  =========                 |
  \\      /  F ield         | OpenFOAM: The Open Source CFD Toolbox
   \\    /   O peration     | Website:  https://openfoam.org
    \\  /    A nd           | Version:  7
     \\/     M anipulation  |
\*---------------------------------------------------------------------------*/
FoamFile
{
    version     2.0;
    format      ascii;
    class       volScalarField;
    location    "19";
    object      p;
}
// * * * * * * * * * * * * * * * * * * * * * * * * * * * * * * * * * * * * * //

dimensions      [1 -1 -2 0 0 0 0];

internalField   nonuniform List<scalar> 
15191
(
33.8096
-32.4647
-77.7469
-99.2745
-105.957
-111.122
-114.356
-116.107
-117.385
-118.742
-120.877
-121.328
-123.716
-129.006
-136.858
-143.954
-144.971
-145.026
-145.013
-145.049
-145.085
-145.033
-144.001
-143.715
-143.61
-143.86
-144.901
-144.922
-145.824
-145.569
-145.56
-146.052
-146.06
-146.043
-146.035
-146.028
-146.084
-145.649
-145.585
-145.592
-145.805
-145.718
-145.642
-145.756
-146.155
-146.187
-146.214
-146.222
-146.192
-146.202
-145.813
-145.698
-145.701
-145.849
-146.031
-145.87
-145.747
-145.719
-145.803
-146.208
-146.205
-146.197
-146.186
-146.137
-146.076
-145.718
-145.693
-145.639
-145.836
-145.861
-144.963
-144.963
-143.911
-143.623
-143.451
-143.64
-144.842
-144.875
-144.917
-144.904
-145.746
-145.506
-145.491
-145.996
-146.021
-146.04
-146.074
-146.426
-146.221
-146.062
-145.964
-145.746
-145.767
-145.928
-146.063
-146.193
-146.073
-146.023
-145.99
-146.128
-146.11
-146.047
-146.199
-146.158
-146.129
-146.204
-146.14
-146.202
-146.11
-146.011
-146.006
-146.116
-146.273
-145.723
-145.234
-145.369
-145.702
-146.148
-146.172
-146.177
-146.013
-146.062
-146.094
-146.009
-146.094
-146.08
-146.075
-145.962
-145.811
-145.937
-145.771
-145.859
-145.999
-146.151
-146.026
-145.952
-145.852
-145.945
-145.923
-145.851
-145.997
-145.967
-145.964
-146.051
-145.999
-146.053
-145.961
-145.841
-145.844
-145.944
-146.059
-146.014
-146.105
-145.973
-145.945
-145.96
-145.749
-145.861
-145.993
-145.899
-145.784
-145.648
-145.866
-145.682
-145.548
-145.301
-145.435
-145.219
-145.364
-145.544
-145.552
-145.459
-145.336
-145.177
-145.476
-145.462
-145.372
-145.668
-145.621
-145.616
-145.749
-145.711
-145.829
-145.728
-145.63
-145.673
-145.878
-146.082
-145.435
-144.895
-145.071
-145.44
-145.986
-146.056
-146.074
-145.855
-145.956
-145.997
-145.857
-145.927
-146
-146.022
-145.958
-145.735
-145.906
-145.917
-145.635
-145.879
-146.001
-146.011
-145.957
-145.931
-145.772
-145.922
-146.076
-146.044
-145.816
-146.022
-146.112
-146.047
-145.936
-145.61
-145.466
-145.251
-145.617
-146.001
-146.021
-145.886
-145.629
-145.599
-145.772
-145.883
-145.764
-145.645
-145.86
-145.709
-145.595
-145.737
-145.822
-145.638
-145.35
-145.638
-145.696
-145.44
-145.126
-145.694
-146.128
-146.071
-145.973
-146.18
-146.018
-145.931
-146.138
-145.972
-146.132
-146.042
-145.93
-146.082
-146.233
-146.346
-146.47
-146.31
-145.9
-145.972
-145.999
-145.961
-145.977
-146.042
-146.055
-146.02
-146.018
-146.017
-146.021
-145.964
-145.916
-145.935
-145.979
-146.363
-146.13
-146.11
-146.356
-146.317
-146.233
-146.363
-146.219
-146.136
-146.073
-146.103
-146.216
-146.388
-146.538
-146.4
-146.276
-146.394
-146.524
-144.759
-141.319
-142.337
-144.407
-144.064
-143.817
-143.594
-143.194
-142.395
-143.083
-143.14
-140.918
-138.43
-136.915
-135.471
-133.505
-131.499
-130.316
-129.308
-127.873
-126.422
-125.158
-124.401
-123.635
-122.494
-121.252
-120.025
-119.223
-118.381
-117.151
-115.633
-114.033
-112.59
-111.004
-107.471
-102.575
-94.8187
-85.6952
-73.7852
-35.2509
30.4619
143.108
245.334
391.487
708.404
1197.63
1280.46
934.078
1288.69
1210.87
708.713
659.866
667.596
355.784
155.551
137.969
31.1022
-29.7474
-60.6304
-32.1716
31.5925
20.8663
79.9118
168.483
355.677
354.346
169.439
166.217
156.745
31.9348
-36.3568
-39.0997
-75.3225
-78.4138
-77.1841
-93.3985
-95.061
-103.004
-107.091
-109.584
-107.173
-102.24
-103.249
-97.2603
-92.0065
-92.4758
-91.9792
-93.0383
-102.813
-107.855
-107.958
-111.52
-111.716
-111.717
-113.836
-114.092
-115.631
-116.955
-117.831
-116.875
-115.549
-115.309
-113.769
-113.642
-115.239
-116.162
-117.132
-118.418
-118.634
-118.665
-119.865
-120.058
-121.222
-122.318
-123.111
-122.239
-121.112
-120.897
-119.809
-119.67
-120.807
-121.624
-122.484
-123.792
-123.954
-123.923
-125.193
-125.269
-126.513
-127.768
-128.853
-127.868
-126.555
-126.438
-125.207
-125.182
-126.486
-127.376
-128.332
-129.964
-130.014
-129.843
-131.616
-131.602
-133.568
-135.517
-137.169
-135.597
-133.635
-133.472
-131.702
-131.806
-133.589
-134.849
-136.243
-138.658
-138.807
-138.683
-138.491
-140.979
-143.085
-144.454
-144.631
-143.49
-141.275
-141.114
-142.913
-143.047
-141.109
-141.793
-139.985
-138.417
-136.17
-134.019
-132.119
-130.968
-129.923
-128.312
-126.779
-125.344
-124.423
-123.519
-122.198
-120.918
-119.706
-118.879
-118.073
-116.782
-115.383
-113.779
-112.571
-111.124
-107.934
-102.768
-93.2735
-79.7208
-58.5222
-32.6475
31.9677
154.651
352.273
665.153
1194.13
710.437
667.53
380.582
241.341
387.424
359.888
699.764
1179.72
1187.09
748.333
512.999
759.633
1206.56
1191.52
1209.76
1174.68
695.835
709.468
393.838
365.312
331.951
141.49
151.65
139.486
143.323
27.6507
-36.3311
-74.9958
-77.4698
-92.066
-99.2864
-91.2809
-92.3168
-75.9373
-39.1012
-12.543
37.3016
32.226
34.1747
30.3591
-38.0977
-74.6599
-92.1422
-102.522
-103.265
-103.682
-108.201
-111.511
-113.543
-113.69
-115.159
-115.957
-115.065
-115.126
-113.511
-111.66
-110.438
-107.256
-102.758
-102.916
-93.9219
-87.7301
-71.717
-36.8609
23.5233
19.9129
128.132
231.508
139.528
34.3712
-8.66762
46.1074
166.258
365.915
351.687
695.997
1181.67
1801.08
2282.88
2872.24
2758.91
1978.63
1847.06
1285.77
989.506
1403.01
1349.84
1956.79
2743.23
2736.23
1942.04
1298.55
888.676
742.908
951.589
641.05
668.259
344.549
152.593
159.399
37.8497
-18.733
-35.7194
-42.3461
-39.1181
-75.5299
-91.4907
-92.7285
-99.674
-103.588
-107.595
-107.882
-111.062
-111.662
-113.209
-114.018
-112.768
-112.84
-110.88
-111.292
-109.239
-106.983
-102.813
-93.3815
-75.8361
-74.861
-54.7531
-59.9226
-27.2545
32.5667
30.5566
147.354
338.046
348.265
570.548
570.622
886.411
1295.42
1938.05
2729.3
2724.69
2726.19
1958.19
1945.62
1342.22
945.785
739.304
635.758
334.553
346.448
147.911
148.562
27.5125
-31.3835
-31.2162
-63.9302
-72.2823
-77.0324
-93.1624
-93.1974
-102.802
-107.594
-110.43
-110.736
-112.051
-113.206
-113.013
-114.721
-114.43
-114.776
-115.019
-116.452
-116.471
-116.741
-116.835
-118.137
-119.362
-119.613
-120.699
-121.453
-120.579
-120.733
-119.449
-118.562
-117.733
-117.888
-117.852
-118.062
-119.408
-120.728
-122.159
-122.252
-122.311
-123.709
-125.162
-125.331
-126.649
-127.638
-126.637
-126.956
-125.393
-124.4
-123.437
-122.057
-122.19
-120.823
-119.947
-119.023
-117.854
-117.861
-116.494
-115.485
-116.161
-116.972
-115.959
-116.143
-114.848
-114.814
-113.316
-112.145
-110.719
-107.742
-102.807
-103.207
-93.9042
-83.7939
-85.2216
-64.4358
-65.1049
-31.8796
27.0008
28.787
144.649
149.278
338.948
659.863
979.035
1389.66
1267.88
1159.03
1766.1
1800.5
1145.99
678.383
683.371
343.846
154.562
34.706
30.0838
-28.8943
-32.2576
-64.649
-84.2421
-85.3415
-94.9406
-94.8003
-103.576
-107.911
-107.928
-110.8
-112.362
-112.903
-113.623
-114.805
-116.299
-116.182
-117.579
-117.398
-117.615
-117.898
-119.22
-119.214
-120.547
-120.721
-121.941
-122.788
-121.809
-122.031
-120.593
-120.657
-119.268
-118.292
-118.999
-119.753
-118.724
-118.914
-117.654
-117.75
-116.359
-114.914
-113.59
-112.238
-110.61
-110.683
-107.997
-103.701
-103.488
-94.3056
-93.9895
-77.7054
-61.3154
-72.9783
-69.0887
-69.6492
-69.3401
-68.4561
-73.8657
-92.8621
-102.857
-107.807
-110.983
-112.753
-113.069
-114.659
-116.252
-117.698
-119.036
-120.312
-121.162
-119.961
-120.395
-120.712
-122.219
-122.126
-123.659
-123.33
-123.57
-123.81
-123.653
-125.245
-125.367
-126.776
-127.785
-126.726
-127.071
-125.391
-125.571
-124.424
-125.311
-126.252
-125.066
-125.408
-123.807
-123.984
-122.337
-122.589
-121.303
-120.102
-118.941
-119.059
-117.821
-116.454
-114.993
-113.664
-112.294
-112.582
-111.041
-108.16
-108.241
-103.385
-103.824
-94.4567
-76.3253
-56.5236
-20.9662
-38.2469
-45.1114
-11.9608
41.6993
159.943
355.083
380.081
687.884
1156.01
1800.75
1823.44
1168.31
734.051
492.828
350.586
220.61
132.297
29.3572
14.3153
119.641
131.573
316.544
341.085
668.776
1131.31
1141.28
676.25
366.356
224.324
127.703
140.184
30.2817
17.1641
-41.2121
-43.0668
-78.356
-77.9826
-95.1956
-104.31
-108.152
-108.404
-111.141
-111.179
-112.62
-113.224
-113.845
-115.071
-116.57
-117.965
-119.258
-120.361
-120.209
-121.44
-122.719
-124.317
-124.147
-125.711
-125.546
-127.11
-126.844
-127.138
-127.394
-127.208
-128.977
-128.549
-128.719
-128.883
-128.564
-128.704
-128.63
-130.306
-132.087
-132.181
-133.872
-135.217
-133.903
-134.349
-132.442
-131.293
-130.224
-130.156
-130.311
-130.537
-132.401
-134.312
-136.401
-136.569
-136.523
-138.827
-141.2
-141.469
-143.613
-144.192
-143.802
-143.818
-143.962
-144.405
-143.975
-143.941
-143.557
-143.995
-143.847
-143.977
-144.126
-144.066
-144.044
-143.571
-143.718
-143.974
-143.687
-143.826
-144.376
-143.555
-142.811
-143.289
-143.148
-143.279
-143.999
-144.048
-141.168
-141.179
-140.812
-140.708
-138.267
-136.688
-135.239
-133.302
-131.298
-130.068
-129.028
-127.653
-126.274
-125.476
-124.75
-123.707
-122.551
-121.361
-120.544
-119.731
-118.524
-117.092
-115.606
-114.738
-113.521
-111.426
-107.571
-102.732
-98.0352
-91.8711
-74.794
-35.463
25.3136
80.2796
173.859
365.448
691.248
1183.42
703.926
391.922
384.311
366.933
155.251
33.7763
21.7291
-37.8949
-71.7173
-72.5351
-74.8972
-92.6281
-102.531
-102.976
-107.495
-111.074
-111.169
-111.418
-113.774
-115.519
-115.768
-117.135
-118.403
-118.374
-118.478
-119.855
-121.193
-121.388
-122.538
-123.608
-123.658
-123.771
-125.083
-126.394
-126.381
-127.719
-129.085
-129.303
-129.586
-131.379
-131.304
-133.336
-135.291
-135.501
-135.864
-138.157
-138.369
-140.966
-143.372
-142.923
-142.133
-142.684
-142.713
-140.58
-138.132
-138.045
-136.476
-135.027
-133.102
-131.186
-129.956
-128.839
-127.446
-126.1
-125.285
-124.552
-123.534
-122.425
-121.251
-120.41
-119.635
-118.393
-116.959
-115.921
-115.101
-113.52
-111.404
-107.782
-105.16
-101.431
-92.4549
-74.6602
-40.4436
-8.18839
42.5309
163.499
358.469
681.467
1222.51
687.112
362.207
148.926
31.9691
-39.6067
-75.9697
-74.6937
-93.281
-102.728
-107.131
-107.469
-111.391
-113.745
-115.509
-116.926
-117.08
-118.504
-119.844
-121.12
-122.308
-122.503
-123.826
-125.189
-126.558
-127.917
-128.176
-129.769
-131.615
-133.616
-135.565
-136.018
-138.486
-138.593
-140.376
-141.133
-143.485
-143.336
-142.433
-142.835
-144.029
-144.009
-143.024
-143.176
-141.788
-140.069
-137.879
-137.561
-135.347
-133.847
-132.572
-130.838
-129.114
-128.005
-127.031
-125.77
-124.547
-123.806
-123.147
-122.113
-121.006
-120.261
-119.445
-118.15
-116.729
-115.707
-114.761
-113.052
-111.057
-107.448
-105.487
-101.667
-93.7863
-75.9871
-61.5573
-25.9239
36.9255
155.944
349.112
924.239
248.293
-5.22374
-85.8216
-105.757
-115.023
-116.618
-119.657
-122.891
-125.928
-129.512
-133.081
-137.195
-141.553
-145.536
-145.513
-145.604
-145.511
-145.568
-145.456
-145.465
-145.865
-146.26
-146.393
-145.824
-145.886
-144.396
-140.525
-144.09
-145.729
-145.614
-145.676
-145.255
-145.362
-125.39
-124.526
-123.151
-122.279
-121.504
-120.255
-119.551
-118.939
-117.851
-117.266
-116.625
-115.346
-114.473
-113.507
-111.837
-109.587
-107.268
-104.395
-99.175
-90.8617
-82.3043
-69.41
-30.0886
32.3328
936.371
253.045
-4.43679
-85.2689
-106.073
-112.659
-116.094
-119.102
-121.974
-122.763
-124.108
-125.825
-127.3
-129.104
-130.762
-132.683
-134.557
-136.673
-136.731
-135.408
-134.199
-132.408
-130.567
-130.849
-129.702
-130.83
-132.381
-132.596
-134.537
-136.578
-136.715
-138.595
-138.84
-138.492
-136.267
-138.493
-139.969
-141.473
-143.643
-143.44
-144.795
-144.708
-144.267
-144.367
-143.582
-143.035
-143.453
-143.534
-143.686
-141.293
-141.676
-141.549
-141.18
-140.273
-140.96
-141.022
-141.152
-142.131
-142.254
-141.45
-141.528
-139.031
-138.906
-138.513
-138.909
-139.216
-141.711
-141.868
-141.321
-144.587
-144.308
-143.873
-144.073
-141.061
-141.805
-144.024
-143.578
-143.193
-142.594
-141.743
-142.351
-142.466
-140.228
-138.589
-137.089
-135.192
-134.793
-132.685
-130.791
-129.552
-128.543
-127.114
-126.14
-125.28
-124.103
-122.923
-122.202
-121.549
-120.491
-119.299
-118.544
-117.718
-116.357
-114.79
-113.729
-112.521
-110.714
-107.083
-104.777
-100.849
-93.4993
-78.5032
-58.16
-27.6228
39.9756
156.813
333.181
688.804
365.488
162.495
39.7861
-34.2628
-74.0388
-78.0104
-93.2886
-101.69
-102.492
-102.402
-107.678
-107.466
-111.237
-113.225
-114.851
-114.987
-115.062
-116.734
-116.784
-118.252
-119.537
-119.579
-119.605
-121.003
-121.157
-122.3
-123.415
-124.436
-124.638
-125.85
-127.284
-128.743
-129.128
-130.875
-132.914
-134.837
-135.018
-135.276
-137.581
-140.107
-139.748
-140.301
-142.801
-143.11
-143.005
-142.188
-142.759
-142.897
-143.06
-143.996
-143.909
-143.42
-143.702
-141.363
-140.918
-140.336
-140.585
-139.913
-139.675
-137.18
-134.893
-133.433
-132.267
-130.638
-130.29
-128.559
-126.932
-125.838
-124.975
-123.698
-122.909
-122.224
-121.129
-120.429
-119.821
-118.691
-117.468
-116.665
-115.769
-114.284
-112.616
-111.36
-109.874
-106.005
-100.713
-96.7247
-90.1283
-76.4196
-37.2848
-5.23549
55.8446
161.57
352.087
369.656
166.553
43.3833
-31.3283
-38.2041
-75.0438
-91.7982
-100.188
-101.293
-106.408
-110.405
-112.522
-112.818
-114.489
-116.14
-117.528
-117.67
-118.94
-120.215
-121.304
-121.379
-122.577
-123.863
-123.852
-125.271
-126.767
-128.35
-128.572
-128.652
-130.424
-132.245
-132.025
-132.193
-130.336
-129.132
-128.201
-126.788
-126.458
-124.879
-123.329
-123.304
-121.9
-120.536
-120.652
-119.419
-118.21
-118.326
-117.049
-115.65
-115.481
-113.97
-112.066
-109.538
-109.489
-105.39
-99.8282
-91.168
-89.1561
-71.4657
-30.9791
37.3183
49.9429
168.264
367.232
372.76
173.662
50.9208
43.1839
-30.1866
-72.477
-89.7838
-90.445
-99.8323
-105.619
-109.649
-109.549
-112.146
-114.06
-115.697
-115.56
-117.103
-118.427
-119.718
-119.53
-119.511
-120.801
-122.122
-121.886
-122.012
-123.457
-124.951
-124.725
-124.97
-126.579
-128.202
-127.998
-128.109
-126.52
-126.503
-128.207
-129.906
-129.712
-132.624
-131.615
-130.083
-131.289
-131.564
-132.216
-134.273
-134.023
-136.345
-138.975
-138.852
-141.875
-95.3839
-88.7704
-76.2624
-56.1412
-23.7496
41.258
149.459
929.172
253.816
-9.63487
-86.188
-107.105
-113.007
-116.399
-119.54
-122.523
-125.594
-129.008
-132.67
-136.714
-136.173
-139.464
-139.862
-139.521
-141.915
-139.15
-138.803
-138.469
-138.282
-136.277
-136.128
-136.496
-136.086
-136.459
-136.858
-136.321
-135.831
-136.407
-138.54
-138.106
-140.621
-140.52
-140.392
-142.699
-144.199
-144.067
-143.526
-143.639
-142.659
-142.706
-137.898
-135.579
-135.768
-135.372
-138.588
-141.053
-137.933
-137.265
-137.345
-140.014
-139.86
-138.052
-136.597
-134.645
-134.108
-136.217
-136.572
-136.576
-139.276
-139.443
-141.993
-141.707
-143.578
-143.407
-142.942
-142.103
-141.098
-141.834
-141.767
-141.856
-142.87
-141.89
-142.262
-141.155
-141.88
-141.922
-143.196
-143.275
1187.34
666.516
352.509
144.788
33.4346
-38.4644
-76.745
-93.1736
-105.921
-108.141
-112.036
-114.276
-115.783
-117.363
-119.806
-120.492
-122.98
-128.546
-136.546
-136.226
-142.376
-145.71
-145.535
-145.751
-145.617
-142.094
-141.772
-141.594
-141.614
-141.314
-141.309
-140.7
-139.531
1197.3
671.432
344.73
134.002
33.304
-35.1735
-76.56
-95.9191
-105.303
-108.261
-111.874
-114.055
-116.423
-117.172
-119.495
-122.79
-127.928
-127.394
-132.668
-136.96
-135.811
-121.144
-119.402
-117.746
-118.301
-116.939
-117.305
-116.092
-114.78
-114.89
-113.303
-111.754
-111.354
-108.442
-103.936
-98.5107
-98.4741
-89.8973
-73.997
-69.5518
-29.2069
40.5338
153.671
167.586
42.8633
-28.6354
-69.3537
-72.1898
-89.4901
-98.5013
-104.066
-103.08
-104.446
-108.884
-111.544
-113.427
-113.172
-113.3
-114.935
-116.465
-116.304
-116.168
-117.509
-118.762
-118.495
-118.512
-119.99
-119.779
-121.169
-121.41
-121.294
-122.904
-122.765
-124.259
1177.73
675.11
341.703
148.733
33.2906
-33.3484
-76.3532
-92.9369
-92.3551
-93.6738
-86.6635
-106.767
-113.251
-116.454
-119.553
-122.628
-127.938
-129.284
-132.893
-137.166
-136.37
-136.671
-135.616
-135.945
-138.106
-141.107
-143.529
-142.85
-142.926
-143.08
-145.517
-141.825
-144.8
28.8803
-35.1984
-79.3797
-99.5236
-105.926
-110.868
-114.102
-115.979
-117.337
-118.733
-118.66
-118.44
-119.845
-121.39
-121.191
-121.097
-123.389
-123.109
-122.757
-122.643
-128.314
-136.005
-135.922
-73.5583
-33.0752
29.9312
42.6652
165.107
171.78
45.7026
-25.6923
-24.4025
-30.2617
-72.4868
-89.1497
-89.0065
-139.102
-128.615
-130.353
-130.452
-130.407
-132.273
-134.31
-134.991
-135.046
-137.373
-140.134
-132.895
-132.903
-133.511
-135.693
-137.882
-140.64
-143.264
-142.903
-141.859
-142.414
-143.667
-143.526
-142.5
-142.431
-142.281
-143.941
-143.792
-143.214
-143.337
-142.264
-142.335
-142.593
-143.724
-144.282
-135.601
-134.895
-134.866
-137.073
-136.786
-137.707
-138.33
-138.895
-139.177
-135.42
-133.253
-132.762
-132.788
-133.291
-131.5
-130.907
-130.805
-131.293
-131.192
-129.46
-129.032
-128.967
-129.356
-129.306
-131.156
-133.079
-132.607
-132.406
-130.623
-128.803
-127.189
-126.875
-125.555
-124.244
-123.084
-122.951
-121.882
-120.7
-119.466
-119.309
-118.023
-116.469
-114.969
-114.589
-112.936
-110.914
-107.253
-107.176
-110.945
-113.035
-114.769
-114.902
-116.455
-118.024
-119.382
-119.35
-120.709
-121.936
-123.093
-123.074
-124.363
-125.689
-127.07
-127.249
-128.889
-130.712
-127.303
-126.915
-126.979
-126.983
-128.59
-126.846
-126.945
40.6071
-27.7834
-74.873
-96.3323
-103.403
-108.773
-112.244
-114.266
-115.675
-116.654
-119.429
-122.542
-120.662
-121.309
-124.325
-127.931
-131.659
-145.413
-145.231
-145.133
-145.555
-146.036
-145.668
-145.531
-145.254
-145.465
-145.752
-146.107
-145.606
-145.646
-145.129
-145.245
-145.554
-144.597
-143.568
-141.89
-142.318
-141.769
-140.35
-138.586
-136.919
-138.799
-134.965
-132.677
-130.925
-138.898
-140.958
-141.974
-141.969
-141.728
-143.118
-143.155
-141.27
-142.272
-139.488
-138.576
-138.197
-138.914
-139.197
-139.472
-139.782
-139.881
-139.831
-139.778
-139.676
-139.416
-139.977
-140.497
-140.34
-140.864
-141.103
-140.981
-141.39
-141.54
-141.028
-141.138
-141.422
-141.435
-141.439
-141.45
-141.391
-141.405
-141.064
-141.045
-141.553
-141.473
-141.229
-141.518
-141.385
-141.115
-141.348
-140.92
-140.698
-141.068
-141.306
-141.519
-141.7
-141.77
-141.748
-141.697
-141.653
-141.387
-141.731
-140.81
-139.821
-138.357
-137.262
-136.197
-134.588
-133.339
-132.128
-130.401
-129.167
-128.082
-126.547
-125.562
-124.729
-123.451
-122.614
-121.854
-120.558
-119.183
-118.323
-117.402
-116.032
-114.587
-113.591
-112.372
-109.04
-104.521
-101.203
-95.4403
-83.143
-47.1359
-20.5361
34.6619
129.528
300.589
568.739
608.594
315.877
138.295
29.7846
20.3499
-41.098
-78.2941
-94.3413
-95.8403
-103.693
-108.498
-112.008
-111.936
-114.054
-115.681
-117.086
-117.306
-118.763
-120.208
-121.593
-121.606
-122.971
-124.417
-124.524
-126.129
-127.879
-128.17
-130.095
-132.058
-132.386
-134.365
-136.102
-136.329
-138.1
-139.624
-139.871
-139.921
-139.823
-139.795
-139.844
-139.765
-139.543
-139.375
-139.246
-139.048
-138.717
-139.833
-138.801
-139.067
-138.789
-140.011
-138.871
-139.148
-138.815
-140.054
-138.847
-139.038
-139.233
-139.239
-139.284
-139.327
-139.335
-139.299
-139.276
-139.257
-139.05
-138.761
-139.988
-138.626
-138.845
-138.412
-139.532
-138.168
-138.302
-137.784
-138.874
-137.435
-137.541
-137.498
-137.347
-137.247
-137.257
-137.091
-136.711
-136.384
-136.177
-135.815
-135.097
-132.742
-133.124
-133.568
-134.013
-133.526
-132.235
-131.697
-130.393
-129.058
-130.646
-130.236
-129.595
-129.423
-127.403
-90.9564
-100.012
-106.426
-111.643
-114.353
-115.84
-116.995
-118.274
-119.515
-121.03
-123.465
-129.08
-136.919
-136.315
-136.121
-135.635
-127.155
-143.854
-143.735
-129.756
-130.307
-132.764
-135.247
-135.905
-139.12
-136.475
-135.84
-136.229
-139.019
-141.653
-143.442
-141.142
-141.677
-142.004
-142.322
-142.308
-142.112
-141.916
-141.539
-142.345
-142.822
-142.551
-142.376
-142.82
-143.225
-143.093
-143.238
-143.624
-143.84
-143.789
-143.297
-143.226
-143.377
-143.365
-143.159
-143.297
-143.771
-143.749
-143.558
-143.293
-143.241
-143.523
-143.224
-143.136
-143.415
-143.614
-143.152
-142.627
-143.002
-143.255
-143.508
-143.622
-143.517
-143.385
-143.183
-143.648
-142.715
-144.026
-143.896
-143.625
-143.776
-142.183
-141.043
-139.951
-138.422
-137.256
-136.111
-134.49
-133.239
-132.07
-130.475
-129.346
-128.35
-126.974
-125.546
-124.644
-123.82
-122.533
-121.132
-120.231
-119.354
-118.009
-116.552
-115.626
-114.633
-113.183
-110.085
-108.426
-105.07
-98.7622
-85.5586
-67.6779
-40.8549
19.6683
125.271
284.949
301.811
127.653
23.4075
-35.8502
-48.9313
-82.0555
-96.9899
-104.381
-105.185
-109.478
-112.872
-114.589
-114.81
-116.231
-117.745
-119.124
-119.341
-120.741
-122.233
-123.548
-123.693
-125.125
-126.686
-128.179
-128.378
-130.136
-131.987
-132.336
-134.253
-136.085
-136.431
-138.168
-139.841
-140.126
-141.838
-142.022
-142.089
-143.243
-143.592
-143.733
-144.579
-145.875
-146.01
-146.195
-146.179
-145.934
-146.126
-146.245
-146.197
-146.098
-145.823
-145.714
-145.521
-145.845
-146.187
-146.224
-146.143
-145.972
-145.955
-146.108
-146.201
-146.148
-146.076
-146.234
-146.167
-146.092
-146.173
-146.24
-146.164
-145.988
-146.17
-146.2
-146.087
-145.933
-146.022
-146.017
-146.042
-146.065
-146.224
-146.442
-146.43
-146.223
-146.206
-146.424
-146.423
-146.214
-144.367
-141.602
-144.73
-144.731
-141.601
-144.748
-144.726
-141.577
-144.733
-144.7
-146.433
-146.209
-146.058
-144.033
-143.88
-143.802
-143.722
-143.652
-143.72
-142.288
-140.712
-138.854
-136.73
-134.746
-133.451
-132.272
-130.661
-130.874
-129.094
-129.246
-128.041
-128.938
-129.844
-128.45
-128.62
-127.223
-127.359
-125.856
-126.004
-124.437
-122.785
-121.546
-120.945
-121.409
-120.365
-119.29
-118.104
-116.691
-115.271
-113.77
-113.851
-112.665
-111.581
-112.356
-110.372
-108.223
-109.092
-105.486
-101.813
-93.8012
-95.2524
-96.5704
-90.7276
-74.971
-76.8254
-79.8819
-44.2192
-18.5135
-46.398
-41.6314
-78.9083
-79.1408
-95.1383
-94.1197
-104.069
-104.718
-108.038
-108.043
-111.365
-111.161
-111.287
-112.988
-112.682
-112.614
-113.11
-114.739
-116.342
-117.743
-119.098
-120.402
-120.883
-122.45
-124.166
-125.816
-127.428
-128.987
-130.021
-131.454
-131.192
-130.975
-132.785
-132.563
-134.062
-134.476
-135.543
-137.028
-139.081
-141.119
-142.933
-143.267
-144.541
-144.458
-144.695
-143.249
-141.278
-139.165
-137.258
-135.84
-134.454
-134.77
-133.012
-133.191
-134.86
-136.416
-136.268
-136.828
-137.844
-139.364
-141.474
-143.453
-143.681
-141.649
-139.571
-137.946
-138.077
-136.481
-134.979
-133.311
-131.572
-130.148
-128.741
-128.834
-127.535
-127.529
-126.135
-124.538
-122.896
-123.114
-121.556
-120.135
-119.067
-118.09
-116.809
-115.49
-115.557
-113.863
-113.932
-112.137
-112.566
-109.69
-105.188
-105.395
-95.5309
-95.0956
-79.4683
-42.1661
19.1951
130.531
139.522
328.311
627.597
883.151
1221.67
1207.46
1142.81
1201.83
1157.5
678.147
633.105
357.453
357.762
347.864
142.857
27.1577
24.5373
20.605
21.9657
-39.9972
-38.5233
-77.1909
-75.285
-93.8501
-103.326
-103.196
-108.084
-108.09
-108.333
-111.047
-110.973
-111.139
-111.147
-111.056
-113.083
-114.661
-116.182
-117.605
-118.928
-119.256
-120.687
-122.237
-123.878
-125.517
-127.077
-127.45
-129.254
-130.987
-132.853
-134.588
-134.325
-134.84
-136.836
-139.001
-141.181
-143.197
-143.25
-142.686
-143.154
-143.988
-143.265
-143.373
-143.931
-143.344
-142.869
-143.437
-144.265
-144.302
-143.566
-143.481
-143.767
-141.65
-141.427
-141.269
-141.722
-141.569
-141.512
-141.362
-141.359
-139.828
-138.416
-138.55
-138.95
-138.824
-141.197
-141.323
-143.371
-144.508
-144.648
-143.268
-140.979
-143.483
-143.498
-142.81
-143.359
-143.583
-143.484
-144.367
-144.387
-143.992
-141.024
-144.454
-144.287
-144.044
-144.301
-144.676
-144.589
-143.928
-143.805
-143.144
-143.65
-143.571
-144.579
-144.419
-141.442
-141.813
-142.239
-141.714
-143.943
-143.503
-143.312
-142.714
-143.231
-143.343
-144.068
-144.09
-139.199
-138.988
-139.262
-139.527
-137.514
-137.137
-136.875
-136.441
-134.311
-133.996
-133.586
-133.914
-134.16
-133.761
-133.429
-133.598
-133.267
-133.139
-131.173
-131.204
-131.409
-133.346
-133.01
-131.003
-129.167
-129.598
-127.494
-129.746
-131.621
-133.523
-134.025
-133.79
-136.078
-131.875
-131.757
-132.229
-130.247
-130.002
-129.78
-131.614
-132.093
-133.993
-134.427
-132.636
-132.011
-132.277
-131.788
-130.012
-127.905
-130.177
-130.654
-130.408
-130.137
-131.979
-131.757
-129.939
-130.237
-132.044
-132.335
-134.248
-134.57
-132.772
-132.128
-132.394
-130.515
-130.719
-130.371
-128.797
-128.521
-128.279
-126.741
-126.877
-126.598
-125.28
-124.869
-125.29
-126.573
-128.226
-127.781
-129.359
-128.868
-127.417
-127.528
-127.671
-127.734
-127.625
-127.904
-127.379
-125.754
-123.807
-123.852
-125.317
-125.276
-125.221
-124.852
-124.431
-125.53
107.918
-97.8332
-115.7
-122.07
-127.114
-130.756
-134.232
-138.234
-142.046
-145.648
-145.655
-146.107
-146.116
-146.11
-146.095
-145.611
-145.623
-145.655
-142.352
-136.938
-142.782
-142.706
-145.865
-145.785
-144.933
-144.946
-144.896
-144.895
-143.734
-144.702
-144.639
-145.628
-145.304
-145.219
-145.758
-145.744
-146.177
-146.158
-145.825
-145.513
-145.615
-145.867
-145.899
-146.239
-146.234
-145.815
-145.819
-145.289
-145.373
-145.679
-145.663
-144.793
-144.882
-145.76
-145.965
-145.784
-145.61
-145.582
-145.595
-145.457
-145.402
-145.332
-145.853
-145.867
-146.272
-146.276
-145.956
-145.969
-145.746
-145.64
-145.455
-145.132
-145.487
-145.13
-145.485
-145.683
-145.761
-145.991
-145.967
-146.297
-146.271
-145.861
-145.839
-145.453
-145.845
-146.257
-146.3
-146.016
-145.954
-145.648
-145.356
-145.719
-143.108
-143.035
-143.042
-143.03
-142.797
-142.679
-142.455
-139.713
-139.652
-140.038
-139.261
-140.996
-141.941
-141.743
-141.546
-142.79
-143.635
-143.226
-142.687
-141.532
-141.751
-141.26
-142.198
-142.11
-141.933
-143.087
-143.186
-142.603
-139.83
-139.45
-140.179
-140.052
-140.408
-137.633
-137.377
-137.077
-136.714
-134.266
-133.906
-133.352
-133.585
-130.76
-131.246
-130.655
-133.101
-133.464
-133.839
-136.388
-136.672
-136.94
-134.453
-134.139
-133.321
-134.772
-132.848
-133.183
-133.408
-133.548
-134.47
-135.226
-135.276
-135.31
-135.488
-135.996
-136.25
-136.15
-136.625
-136.798
-136.629
-137.021
-137.096
-136.641
-136.701
-136.723
-136.751
-136.739
-136.732
-136.681
-136.683
-137.169
-137.175
-136.938
-137.228
-137.184
-136.938
-137.223
-137.193
-137.023
-137.193
-137.426
-137.705
-137.325
-136.802
-136.942
-137.028
-137.069
-137.715
-136.944
-136.868
-136.069
-135.2
-134.179
-132.546
-131.334
-130.195
-129.08
-127.885
-126.225
-125.105
-124.129
-122.779
-121.938
-121.19
-119.979
-119.201
-118.402
-117.078
-116.18
-115.263
-113.799
-111.909
-110.032
-107.607
-103.03
-95.5019
-87.6898
-76.3504
-39.7517
16.1143
71.2976
153.953
322.021
605.072
1023.11
1070.37
616.381
322.911
156.288
128.249
25.2295
-38.5583
-76.1584
-79.6668
-94.6256
-102.405
-106.378
-107.166
-110.88
-113.264
-114.919
-115.069
-116.677
-118.171
-118.233
-119.608
-120.942
-120.979
-122.441
-123.911
-124.108
-125.92
-127.732
-128.09
-129.887
-130.275
-132.214
-133.953
-134.074
-135.517
-135.644
-135.717
-135.607
-135.501
-135.413
-135.146
-136.415
-136.09
-135.167
-134.736
-133.335
-133.528
-133.731
-133.882
-133.977
-134.023
-134.039
-132.16
-132.301
-130.272
-130.291
-129.845
-128.924
-127.913
-126.903
-125.843
-124.839
-123.836
-122.95
-122.057
-120.746
-119.937
-119.226
-118.553
-117.841
-116.583
-115.783
-114.72
-113.127
-111.825
-110.306
-107.015
-102.254
-99.725
-93.2874
-81.7978
-63.5769
-33.3594
26.4849
126.143
221.02
349.391
629.807
1066.17
1078.85
636.173
350.414
319.197
142.023
28.3168
-33.5877
-39.4913
-78.6152
-92.9195
-93.3665
-101.452
-106.828
-110.232
-110.466
-112.993
-114.729
-114.74
-116.274
-117.588
-117.658
-118.876
-119.072
-120.416
-121.772
-122.012
-123.447
-123.804
-125.424
-125.75
-127.438
-127.626
-129.152
-130.719
-132.166
-132.219
-132.127
-131.902
-131.727
-131.639
-131.418
-133.042
-134.187
-135.415
-135.181
-134.868
-135.985
-134.892
-135.103
-134.79
-135.949
-134.821
-135.04
-134.717
-135.89
-134.698
-134.949
-134.994
-134.996
-135
-134.988
-134.973
-134.937
-134.862
-134.53
-135.749
-134.435
-134.637
-134.238
-135.379
-133.998
-134.137
-133.667
-134.791
-133.325
-133.324
-133.194
-132.603
-133.548
-133.554
-131.919
-131.812
-130.182
-130.159
-130.618
-131.205
-131.386
-131.873
-132.113
-132.004
-132.486
-132.655
-132.554
-132.761
-132.814
-133.078
-133.076
-133.101
-133.115
-133.13
-133.17
-132.973
-132.999
-132.94
-133.186
-133.183
-132.965
-133.273
-133.268
-133.133
-133.33
-133.099
-131.598
-131.586
-131.302
-130.958
-132.066
-130.95
-131.136
-130.794
-131.955
-130.801
-130.985
-131.176
-131.103
-130.58
-131.83
-130.555
-130.55
-131.775
-130.515
-130.472
-131.75
-130.43
-130.892
-130.861
-130.526
-130.162
-131.3
-129.925
-130.043
-129.581
-130.688
-129.272
-129.314
-129.229
-128.894
-128.368
-128.227
-127.902
-129.983
-129.812
-131.824
-131.569
-131.308
-131.065
-130.556
-129.903
-128.173
-128.56
-128.965
-129.297
-129.56
-127.537
-127.643
-126.063
-125.875
-125.606
-127.241
-126.823
-126.463
-126.19
-125.801
-127.599
-127.657
-125.869
-124.548
-125.795
-127.853
-127.451
-125.357
-123.446
-123.333
-122.289
-121.161
-119.883
-119.017
-119.737
-118.756
-118.43
-117.881
-119.028
-120.333
-125.426
-127.513
-126.357
-128.508
-127.988
-128.383
-127.817
-125.897
-126.284
-125.839
-123.951
-123.38
-121.684
-121.397
-121.285
-121.804
-122.107
-122.405
-122.176
-121.206
-120.247
-119.344
-120.403
-120.134
-119.807
-118.396
-118.631
-118.444
-117.663
-116.875
-115.733
-114.965
-115.805
-117.02
-117.016
-117.989
-118.161
-118.436
-119.923
-120.216
-119.825
-118.548
-118.722
-120.388
-122.195
-121.846
-123.467