/*--------------------------------*- C++ -*----------------------------------*\
  =========                 |
  \\      /  F ield         | OpenFOAM: The Open Source CFD Toolbox
   \\    /   O peration     | Website:  https://openfoam.org
    \\  /    A nd           | Version:  7
     \\/     M anipulation  |
\*---------------------------------------------------------------------------*/
FoamFile
{
    version     2.0;
    format      ascii;
    class       volScalarField;
    location    "19";
    object      p_rgh;
}
// * * * * * * * * * * * * * * * * * * * * * * * * * * * * * * * * * * * * * //

dimensions      [1 -1 -2 0 0 0 0];

internalField   nonuniform List<scalar> 
15191
(
6340.34
6345.47
3775.78
961.87
473.091
399.105
137.628
33.0652
20.3999
18.4227
18.3082
10.8404
9.21892
6.7227
3.81219
1.20098
0.823743
0.788889
0.793829
0.757494
0.730745
0.763221
1.1559
1.28812
1.39337
1.29466
0.875358
0.853552
0.482872
0.602681
0.632448
0.460441
0.451562
0.469573
0.478152
0.499812
0.449625
0.586388
0.608632
0.577918
0.479148
0.52708
0.557254
0.50861
0.378589
0.345476
0.314686
0.305135
0.325671
0.316157
0.447374
0.517563
0.51765
0.456323
0.36389
0.435168
0.498728
0.496296
0.462903
0.326604
0.331092
0.331664
0.341488
0.397711
0.452909
0.518971
0.506891
0.531406
0.4477
0.446979
0.815566
0.815901
1.24554
1.38317
1.55338
1.51684
0.964845
0.931684
0.898236
0.890912
0.53796
0.663949
0.703952
0.517888
0.493243
0.474561
0.440387
0.325596
0.468869
0.612127
0.730906
0.895738
0.880692
0.819122
0.697335
0.559426
0.636107
0.662347
0.702827
0.643365
0.63816
0.649629
0.57783
0.594483
0.592371
0.544304
0.587603
0.57419
0.632335
0.700812
0.71599
0.668548
0.562837
0.932875
1.26273
1.17486
0.951971
0.643454
0.632312
0.62129
0.694999
0.687819
0.680721
0.689377
0.605235
0.651893
0.699928
0.780764
0.853755
0.717886
0.886215
0.884493
0.763563
0.599625
0.684104
0.732975
0.84086
0.82663
0.824279
0.845485
0.779661
0.785638
0.758187
0.697584
0.729014
0.720932
0.778408
0.85758
0.856215
0.793299
0.71608
0.706641
0.644413
0.732244
0.804846
0.79751
0.925448
0.832817
0.774774
0.877086
0.962075
1.03637
0.872615
1.07659
1.19534
1.35424
1.21978
1.44616
1.37813
1.23161
1.18071
1.23981
1.3625
1.51803
1.29165
1.28383
1.3171
1.10778
1.12747
1.10554
0.997648
1.0169
0.946531
1.01515
1.08171
1.05001
0.906676
0.75527
1.2223
1.60491
1.47623
1.21676
0.807657
0.74899
0.726337
0.852654
0.79657
0.774058
0.846851
0.762588
0.739347
0.745837
0.791519
0.91435
0.757724
0.728905
1.00772
0.818012
0.675976
0.656305
0.693398
0.720867
0.906156
0.798274
0.6367
0.655037
0.85946
0.722469
0.611698
0.676098
0.819124
1.07927
1.16698
1.33654
1.07406
0.761996
0.689704
0.816559
1.06418
1.08758
0.9066
0.808529
0.954999
1.03778
0.839264
1.00554
1.09658
0.949147
0.88759
1.09007
1.30985
1.05407
1.01415
1.27756
1.54602
0.992312
0.629445
0.682414
0.759102
0.577411
0.69869
0.766759
0.590253
0.718808
0.573655
0.65163
0.758973
0.618612
0.492316
0.402001
0.322326
0.440166
0.631741
0.557208
0.5285
0.556814
0.54107
0.486403
0.474346
0.514919
0.518906
0.510894
0.506541
0.570143
0.612398
0.578899
0.535863
0.390104
0.556636
0.577251
0.402077
0.437847
0.503875
0.396285
0.505315
0.577802
0.657349
0.601081
0.493907
0.361214
0.255537
0.352277
0.459122
0.362334
0.272137
1.15693
2.80748
2.41415
1.38228
1.71075
2.00863
2.26883
2.69664
3.22029
2.85233
2.81239
4.09603
5.42912
6.18665
6.84335
7.61687
8.36675
8.74979
8.9775
9.28074
9.56579
9.8176
9.8982
10.2984
11.2598
12.8187
15.6624
16.0175
21.6212
29.155
44.2562
81.3637
113.84
155.136
236.069
357.558
901.201
1197.78
2571.76
4762.53
7471.37
14357.7
17183
23946.7
35632.2
53595.5
55315.1
44225.4
55009.5
54535.5
36451.3
37310.7
36928.4
23053.2
14411.9
14218.9
7763.08
5966.54
3085.88
4518.9
8571.67
7645.27
9890.64
15078
23644.8
22858.9
15670.2
13835.5
13195.3
8907.9
4424.89
3821.02
1952.24
2121.71
2184.06
834.627
1044.44
372.395
216.552
207.532
360.206
651.551
588.768
710.416
771.918
723.645
780.4
949.061
464.098
283.925
281.183
126.035
143.835
158.412
65.2364
72.9187
45.2763
28.3843
25.547
29.5649
44.766
39.1552
65.2986
59.0888
36.123
30.6303
27.6172
17.4231
20.0397
18.8245
14.6509
14.411
12.8437
11.0938
10.547
12.7353
14.2393
12.6132
13.2019
12.621
11.8498
12.6153
12.2058
10.1939
10.2454
10.0122
9.57162
9.68565
9.46235
9.24736
8.91128
9.13717
9.35894
9.33751
9.56528
9.5519
9.29494
9.113
8.91653
8.50097
8.57169
8.70278
8.15955
8.29072
7.5514
6.80682
5.99846
6.745
7.46923
7.49198
8.08468
7.95045
7.38605
6.91089
6.34128
5.25847
5.22769
5.29134
5.41309
4.08879
2.86445
1.93341
1.80713
2.59758
3.95245
4.13944
3.02127
2.91248
4.12288
3.51044
4.51069
5.28203
6.25485
7.09691
7.73174
8.10333
8.39393
8.80557
9.15908
9.48745
9.69342
10.0002
10.6302
11.5088
13.1936
13.6032
16.7668
25.8765
42.0281
63.7497
80.2605
140.544
219.899
494.994
756.951
2126.69
3878.27
5000.27
8643.04
13998
23257.2
37204.7
54230
36746.8
37874.8
23778
18074.4
24960.4
24266.6
37514.3
53078.5
52952.7
38696.5
29509.8
40410.1
54956.1
54115.9
53214.6
53483.8
37999.4
38670.9
25566.9
24743.8
23624.9
12823.1
14281
16251.1
13918.2
9615.78
5135.84
2527.87
2621.48
1169.46
920.233
1586.76
1357.48
2591.43
4782.6
5150.25
7117.74
8078.79
8256.6
8192.67
4835.87
2191.18
1113.79
563.848
645.733
567.769
280.065
153.008
69.372
66.2925
42.8112
28.0537
39.6498
37.2517
71.5833
142.223
257.587
374.248
682.055
481.773
827.542
1280.4
2029.39
3890.77
6851.05
7140.33
12983.1
17856.9
15883.1
9283.07
6329.24
10865.8
15442.4
25155.4
24327.2
38655
53952
68497
76991
85282.8
83011.8
68858.2
71038
55991.2
48361.6
59119.3
57666.9
68240.8
82900.7
84169.2
72126.9
57406.4
39624
41753.9
47077.8
40920.5
37197.8
23396.3
14419.9
14458.3
9857.84
5397.41
5443.48
4281
3314.07
1849.16
781.046
754.91
448.298
312.896
189.073
262.636
122.831
130.351
68.6061
42.7652
59.7108
62.5941
120.863
138.14
191.127
292.996
502.24
967.586
2344.37
2663.68
3677.48
3478.56
4511.61
8859.92
9337.84
13086
23967.7
25571
33086.7
33158
39820.3
57414.1
72019.3
84133.1
82900.9
83026.4
69011.4
68240.6
57666.7
47104.9
42129.2
41032
24048.1
25459.9
14845
14903.9
9358.83
3764.86
4416.54
3065.52
2282.36
2251.23
1279.37
1421.15
731.05
370.396
185.494
190.002
122.669
79.1298
76.8353
47.5297
46.1689
33.7057
32.3802
32.2897
25.1554
21.6304
21.7826
17.2215
12.3436
12.8291
11.1313
10.6515
11.0269
11.0624
12.1614
13.1319
17.5395
16.9527
16.0841
16.2097
12.7484
11.1282
10.3567
10.4665
10.4669
9.91246
9.49933
9.48941
9.16651
8.86899
9.15049
8.96662
9.41263
9.67392
9.94718
10.4102
10.424
11.706
12.315
16.6306
22.9852
21.4462
32.0817
35.4919
28.5169
22.9675
27.9564
28.3644
45.9009
38.987
63.6096
114.023
197.256
373.83
707.931
522.376
1076.49
1502.78
1194.21
3040.32
3002.55
3784.6
9368.56
9305.72
13103.9
14501.7
23546.7
37180.2
48317.7
59156.5
56032.5
54003.3
68488.4
69188.6
53530
38034.9
38697.5
24384.6
14521.7
9896.25
8857.11
4532.82
4400.36
3025.9
1488.47
1188.62
906.949
914.373
387.212
214.452
279.38
149.737
79.2281
63.3657
49.0946
51.2122
33.5819
33.2479
22.4548
20.9856
18.0841
18.238
15.1156
15.8814
12.7485
11.6164
10.6704
10.3285
11.34
12.8942
13.8526
12.3951
15.1701
17.4557
17.7803
13.1357
15.8355
18.2669
26.0239
19.0092
23.9945
51.174
49.1461
71.0278
119.472
114.766
208.606
379.253
516.875
1064.91
1277.15
2247.42
3443.67
2253.06
2706.16
2891.61
2907.46
2729.29
2386.78
1068.76
585.5
294.524
155.944
55.4581
55.8191
38.2646
33.3046
26.732
19.0238
14.6299
13.9083
14.5506
12.9708
12.8139
11.656
11.1125
10.2517
10.3991
10.1314
9.90928
9.85226
9.38634
9.40684
9.00386
8.66732
8.99655
8.81177
9.36871
9.32839
9.805
9.63835
9.1163
9.6609
9.44544
10.5066
10.4303
12.8596
11.6452
14.03
15.0626
15.3146
15.1368
18.8397
23.7324
49.553
49.0716
67.1537
78.7499
148.693
276.681
381.247
710.108
733.562
1436.95
2680.64
3702.24
5435.73
5501.58
4302.32
6384.37
10901.1
15468.4
25172.3
25599.2
38772.6
54172.3
69328.2
69173.2
54976.1
40517.9
29602.3
24850.6
17822.5
15867.7
9285.5
7103.06
12988.5
12882.8
23690.1
24249.5
37520.3
53137.3
54224
36777
25009.7
18045.1
16101.3
14288.5
7152.45
6845.37
3859.65
3280.88
1824.47
2371.61
978.848
494.356
287.992
372.328
191.575
202.77
117.697
65.7811
49.0377
48.153
35.015
26.4124
18.242
14.173
14.8902
13.9398
11.5033
9.9949
10.2055
9.13575
9.25222
8.60419
8.81022
8.79571
8.64499
8.75214
8.14658
8.40583
8.38118
8.34853
8.54163
8.55347
8.62405
8.1481
7.61728
7.67291
7.11269
6.52571
7.05969
6.74089
7.39536
7.76692
8.08041
8.17206
7.96927
7.80052
7.23746
6.61809
5.83509
5.95576
6.01078
4.9466
3.74143
3.69372
2.40428
2.04371
2.29713
2.24433
2.20037
1.91061
2.25544
2.14894
2.29533
2.05836
2.17551
1.92289
1.69133
1.85733
1.98523
2.236
2.34906
2.22492
2.36137
2.16361
1.92114
2.49045
2.97751
2.75633
2.81869
2.69728
2.22846
2.21285
3.84617
3.66889
4.05257
4.26453
5.55761
6.36346
7.04
7.80355
8.55769
8.97926
9.25969
9.6438
9.93207
9.94061
10.0996
10.8866
11.4882
13.6327
15.5113
17.9175
26.0344
36.2402
47.6222
51.4409
114.858
188.044
271.841
503.233
574.481
787.263
2862.28
3911.56
7638.39
9497.93
14727.1
25237.1
36428.4
52689
37396
24494
23909
23291.1
13672.1
7885.29
7671.42
4025.2
2785.58
2676.54
2579.87
1037.77
529.049
469.318
222.46
213.043
178.76
169.099
67.1789
35.7846
41.695
34.613
21.4735
21.2199
17.823
12.8961
11.7295
13.5125
11.8458
10.9356
10.3565
9.9952
9.64088
9.47695
9.70815
9.47183
9.19298
8.92002
8.75439
8.28821
8.55545
7.77942
7.00225
6.71698
6.40443
5.4219
5.12986
3.81236
2.43791
2.94297
3.45804
3.15783
3.12308
4.35903
5.6692
5.73036
6.55148
7.2152
7.97376
8.68889
9.10376
9.48813
10.2559
10.5544
10.3031
10.2477
10.6396
12.3724
15.0658
15.8891
18.8181
25.755
36.4425
38.0853
34.1027
50.0215
114.487
262.928
297.051
463.095
901.371
1675.04
4354.61
5387.26
9317.06
15947.9
22211.8
34099.7
51757.1
39335.3
23166
14207.5
7806.36
4769.38
2040.1
2384.37
983.661
445.69
291.689
310.225
168.09
77.9451
43.2423
35.5217
35.2276
19.217
13.3819
12.4269
11.5826
10.5103
9.91371
9.5024
9.29275
9.0684
8.90605
8.58225
8.0553
7.35746
6.6685
6.27293
5.20928
4.95923
3.64579
3.56545
2.27947
2.53872
3.14532
3.02411
2.15304
2.17373
2.86554
2.79439
3.65067
4.72354
5.89044
6.09128
7.11331
7.83391
8.33809
8.92255
9.46712
9.76917
10.0395
10.377
10.9977
11.6839
12.3411
13.4267
13.4528
14.9266
21.5149
29.322
27.5274
27.6818
29.3713
44.5475
80.4003
151.351
185.66
440.444
759.618
2148.39
2528.59
4355.22
8206.81
12830.2
21399.3
45529.9
18158.1
6094.45
1600.52
249.996
52.916
33.1614
12.091
9.85605
8.31219
6.98824
5.82594
4.30667
2.53198
0.70068
0.686666
0.661612
0.704358
0.691867
0.760063
0.800131
0.668744
0.493327
0.40284
0.702603
0.641292
1.51672
3.5902
1.79443
0.804017
0.913834
0.837815
0.981421
0.838579
11.0627
11.2696
11.7318
11.8804
12.3701
12.7783
13.362
14.5297
18.1461
20.6285
27.2135
33.8804
33.3715
35.4123
65.087
139.435
307.837
363.806
667.689
960.251
1766.97
2947.97
4595.91
7621.67
45767.2
18415
6078.71
1526.02
294.538
88.8322
32.908
15.3283
10.8333
9.9707
9.38995
8.82991
8.49987
7.9799
7.5581
6.9453
6.33042
5.56267
5.73759
6.2829
6.70551
7.29492
7.86722
7.6721
8.04826
7.64623
7.14735
7.11539
6.45663
5.71488
5.73762
4.93006
4.83565
5.08491
6.0912
5.1257
4.33826
3.54009
2.29505
2.4902
1.57871
1.68514
1.95091
1.83711
2.36695
2.69063
2.48998
2.44616
2.30054
3.58973
3.21574
3.50899
4.00804
4.48015
4.2475
4.19471
4.06071
3.52456
3.41379
3.56615
3.26216
4.43329
4.74593
5.20997
4.75977
4.39284
3.21092
2.86743
2.79128
1.26133
1.46012
1.86648
1.68493
3.04291
2.91138
1.74249
2.19322
2.61856
3.28069
3.86319
3.49334
3.38224
4.73608
5.67612
6.46856
7.28261
7.54045
8.38326
9.03453
9.50427
9.7872
10.1588
10.375
10.5778
10.8002
11.0162
11.2423
11.5111
11.6664
12.8221
13.8448
18.7905
36.7522
46.4723
45.2066
46.0285
83.0218
227.567
230.843
317.878
622.139
1946.91
3180.56
5479.84
8822.54
13302.8
22193.5
36323.8
22944.6
14094.2
8610.68
4760.26
2574.02
1786.35
817.149
471.432
483.883
547.24
229.371
182.858
96.4734
47.2786
36.5857
27.7092
32.7357
27.8338
27.4465
28.6062
22.2708
15.1853
13.5261
12.6935
14.1348
12.235
10.7154
10.4402
10.8192
10.4907
10.0238
9.55812
9.42095
8.87927
8.13532
7.39708
7.12212
6.94208
5.90702
4.6114
5.00796
4.65891
3.10798
2.88115
2.89184
3.39694
3.11468
2.97478
2.82715
2.21484
2.28831
2.39736
2.03477
3.30305
3.82102
4.43283
4.18142
4.84654
5.15869
6.49789
7.57361
8.26466
8.67883
9.19223
9.39369
9.8841
10.3202
10.669
10.8548
11.217
11.3031
11.6733
16.2223
16.1454
14.4631
14.6708
18.9262
26.7795
34.6048
36.3776
65.8168
140.285
220.852
374.922
551.975
619.141
722.677
1848.79
5102.16
5540.27
8257.31
12822.5
21002.1
22631.5
14071.5
8655.45
4903.78
4368.71
1805.18
742.871
403.764
454.323
299.608
135.774
73.9227
62.5812
45.7534
44.5475
20.4376
21.3359
14.1508
12.5304
12.6459
15.394
11.301
10.8937
11.044
10.6933
10.352
9.9562
9.70846
9.67285
9.17767
8.60244
8.90441
8.8687
9.48207
9.91445
10.1166
10.4626
10.641
11.0462
11.5128
11.4401
12.3456
13.372
14.7135
14.1649
15.6556
15.3209
20.8752
26.7323
26.8932
34.8822
69.6363
178.235
235.399
426.581
697.952
1055.56
987.932
2568.37
4360.51
7997.37
8860.43
15040.7
22588.4
22601.9
14819.4
9501.07
9105.68
4564.07
2420.91
951.314
886.682
497.534
354.469
144.722
192.942
76.0919
44.8535
34.45
33.7778
22.814
16.3989
13.7066
13.9028
14.0442
14.5205
11.8306
12.0582
12.0294
11.2471
10.8308
11.0692
10.8659
10.466
10.0687
10.2965
10.3171
10.7076
10.5584
10.1101
9.70853
9.97662
9.04205
9.31424
9.7389
9.59551
9.28011
8.65612
7.9422
8.4173
7.30008
5.82631
6.04544
3.97792
333.194
611.881
2047.56
3696.99
5996.1
7284.28
13632.6
45824.7
18545.9
5908.55
1521.51
274.927
74.9966
27.1607
13.6564
10.2513
8.64104
7.42915
6.23735
4.76398
5.35799
4.01231
3.59082
3.99432
2.85604
4.39625
4.7946
5.17173
5.49316
6.3175
6.16541
5.78491
6.23794
5.81217
5.33569
5.9244
5.62005
5.7447
4.85124
5.36667
4.13595
4.2881
4.53039
3.13826
2.11112
2.22546
2.59022
2.48584
3.18259
3.14654
5.64818
6.64515
6.42473
6.12347
4.85791
3.63968
5.52196
6.23831
6.14323
4.76285
5.09831
6.20418
6.96067
7.82961
8.21311
7.3168
6.88443
6.9015
5.46627
5.50496
3.83699
4.11008
2.71462
2.87674
3.16649
3.74372
4.4739
3.99202
4.06549
3.98636
3.24279
3.94827
3.59306
4.36571
3.94484
3.88139
2.95657
2.88868
52854.2
39446.5
23315.5
14535.2
8162.39
5062.67
2338.81
964.787
468.712
379.224
165.074
53.0141
30.6661
21.5064
16.2503
11.5769
9.82145
7.18821
4.12361
4.47054
2.04832
0.595417
0.683052
0.554166
0.628649
2.06363
2.32372
2.51565
2.48232
2.82082
2.75782
3.38531
4.57775
53778.4
39948.3
24708.1
13693.6
6990.89
5231.9
2819.72
996.203
410.47
274.719
165.188
45.0586
30.1606
21.0793
19.4925
9.83165
7.88428
8.16021
6.47996
4.68874
5.69294
12.8096
14.1476
15.7335
14.3508
17.9916
18.206
30.6775
45.099
41.4133
53.0847
54.0886
52.963
121.82
268.561
270.556
440.847
736.519
2344.27
2854.46
5238.87
7258.44
13929.5
13713.6
8201.27
4874.36
3021.6
2139.86
866.745
427.569
427.076
322.073
361.841
207.516
65.2218
46.8634
34.5688
37.8702
42.283
31.8478
26.0921
26.6219
16.4535
14.597
14.2644
14.9982
13.2776
12.9234
12.4413
12.5552
12.8977
11.794
11.9762
11.4736
53782.4
38663.4
24705.2
13813.8
8549.62
5469.18
2615.12
868.684
723.504
708.448
1433.01
326.671
86.9489
21.8045
13.1173
10.0469
7.87356
7.27323
6.05993
4.39908
5.1186
4.88353
5.85432
6.21551
5.30108
3.66779
2.29197
2.97984
2.91949
2.69616
0.728929
2.33492
1.01601
6563.11
5728.51
3627.39
882.808
424.14
319.552
168.055
39.7898
21.7734
19.1835
25.6221
30.7151
23.0104
11.3725
11.7341
11.999
9.82562
10.0789
10.1448
10.2334
7.57759
4.48896
4.75922
1981.47
4571.46
8321.34
7378.38
13490
13464.4
9175.96
4494.84
4694.08
4566.49
2088.37
738.459
536.016
5.6157
9.69771
9.26459
8.51506
9.21796
8.63414
7.89211
7.19998
7.11516
6.10197
4.64785
7.97476
8.02373
7.32687
6.44681
5.53128
4.09665
2.55303
2.9924
3.73758
3.47047
2.52511
2.64726
3.38141
3.46315
3.56145
2.36585
2.50721
2.91194
2.7964
3.59571
3.54736
3.27778
2.07892
1.59228
6.55859
7.31538
7.33755
6.38494
6.76586
5.76667
5.13145
4.51998
4.2405
6.77216
7.62837
8.15441
8.10477
7.51879
8.07799
8.7034
8.81336
8.28267
7.67009
8.78921
9.2993
9.37005
8.90975
9.0121
8.45609
7.8043
8.25173
8.51555
9.10679
9.65416
10.0743
10.1639
10.5035
11.0164
11.3336
12.9466
12.4865
11.9917
13.231
15.9305
24.7895
35.4354
38.8164
27.9573
41.6416
81.5224
191.23
228.029
115.165
52.4971
29.8243
31.5154
29.5733
27.6994
14.444
13.0389
11.9173
12.0549
12.7572
11.3663
10.6185
10.2688
9.96391
9.85144
9.47085
8.90743
9.78341
10.1495
10.1172
10.1048
9.73875
9.59077
10.1294
6608.32
5719.63
3642.27
896.271
436.949
316.602
166.027
42.0604
23.3204
22.3299
13.3847
10.0629
11.3303
11.6068
9.84928
8.57994
7.26121
0.831715
0.968633
1.10286
0.972955
0.718662
1.04503
1.19025
1.42153
1.18881
0.935207
0.650704
0.907195
0.868426
1.06577
0.924702
0.729348
1.19728
1.58555
3.9767
3.57533
3.97653
4.95112
6.18293
7.2756
6.11713
8.55884
9.77377
10.7615
5.83274
4.57461
3.88932
3.8435
4.10763
3.04223
3.0161
4.57817
3.44697
5.19679
6.00824
6.38627
5.79171
5.56663
5.34216
5.06185
4.94957
4.93269
4.88543
4.91908
5.06891
4.67337
4.25015
4.27908
3.94957
3.77343
3.81107
3.54773
3.39932
3.70964
3.63851
3.48393
3.4785
3.49109
3.48221
3.52785
3.51017
3.72801
3.71548
3.41389
3.50225
3.6188
3.45647
3.57786
3.69901
3.55157
3.81893
3.83652
3.54514
3.36155
3.24559
3.13085
3.07448
3.06572
3.06682
3.05358
3.19845
3.04029
3.38738
3.70761
4.09808
4.42934
4.75479
5.25067
5.71971
6.19905
6.85877
7.34932
7.80057
8.5142
8.81166
9.88072
10.1101
10.1916
10.5904
12.5581
17.1856
24.9928
30.7877
35.2756
65.4103
139.45
220.202
374.679
547.986
610.061
735.616
1906.25
5110.92
5553.86
8226.89
12743.1
20988
35116.7
33469.2
22513.9
15123.4
8938.11
8001.51
4398.26
2583.67
984.792
1061.34
695.199
421.798
232.984
174.861
68.5211
38.5571
27.0001
24.6589
18.0797
13.5924
11.0013
11.8986
10.9797
9.5546
9.50985
8.65387
7.93655
7.76094
7.00993
6.24544
6.04878
5.33863
4.80415
4.66664
4.19647
3.83523
3.68797
3.67706
3.77533
3.84363
3.85203
3.9209
4.06767
4.18169
4.30767
4.47488
4.7165
4.34012
4.70963
4.59371
4.76528
4.26405
4.70676
4.54682
4.7506
4.22236
4.72044
4.61841
4.53475
4.52837
4.49722
4.45647
4.44692
4.47527
4.48014
4.49466
4.58174
4.77277
4.25034
4.89479
4.79305
5.09372
4.64865
5.29655
5.26173
5.63823
5.20554
5.92923
5.93707
6.0356
6.20421
6.36213
6.42863
6.60562
6.92842
7.21449
7.42029
7.74239
8.35883
9.55189
9.1716
8.80718
8.43372
8.65181
9.354
9.74839
10.442
11.146
10.4003
10.7573
11.3071
11.5241
12.4323
1474.58
881.799
385.489
303.847
127.549
39.7786
28.4268
26.0294
17.9568
10.9293
9.48788
6.73417
3.76247
4.17943
4.37798
4.86317
8.68749
1.98464
2.14495
11.1016
10.5601
9.42999
8.1576
7.55815
4.99269
6.94292
7.58868
7.19849
5.60615
3.95977
2.73494
4.43012
4.05955
3.79926
3.47782
3.4943
3.61155
3.62364
3.89051
3.33891
2.98283
3.04194
3.11607
2.83207
2.61262
2.71644
2.58946
2.26838
2.14143
2.1707
2.52832
2.59241
2.50904
2.52185
2.66256
2.53567
2.19875
2.24453
2.3555
2.56275
2.61147
2.38328
2.61701
2.68875
2.43711
2.24938
2.53466
2.81269
2.54177
2.47222
2.29586
2.17857
2.28651
2.35186
2.38989
2.09917
2.58774
1.86853
1.9718
2.21085
2.07755
2.79633
3.26074
3.66082
4.09546
4.47939
4.86605
5.35821
5.82814
6.26983
6.82555
7.1908
7.48323
7.923
10.0157
10.1666
9.69798
10.1748
11.5851
12.7131
15.9798
30.9078
45.3305
44.2974
45.8718
84.0869
231.472
234.711
318.269
621.823
1942.4
3159.28
5468.4
8745.31
13252.7
22118.5
21108.2
13202.8
7455.96
5983.36
4358.35
1829.92
765.614
410.554
455.69
300.465
134.409
71.5718
62.2064
39.2755
34.134
18.8859
19.014
12.3136
10.174
9.95887
9.86128
10.313
8.24846
7.69333
7.6444
6.99943
6.32759
6.11628
5.44742
4.87097
4.65535
4.18632
3.73206
3.55001
2.98962
2.89734
2.6443
2.29128
2.25897
2.10358
1.58316
0.80023
0.711686
0.51804
0.51948
0.74034
0.618013
0.477346
0.524596
0.656027
0.864335
0.916351
1.06472
0.844791
0.575044
0.486043
0.559255
0.720834
0.731588
0.570532
0.490984
0.571698
0.60663
0.465813
0.549717
0.600548
0.515223
0.470566
0.565752
0.676106
0.523993
0.510208
0.631893
0.737065
0.620729
0.618469
0.599894
0.596234
0.463226
0.308686
0.319071
0.455422
0.471677
0.325942
0.332988
0.46912
1.40173
2.50519
1.10587
1.0834
2.45129
1.05698
1.0807
2.4775
1.07645
1.11102
0.319611
0.479514
0.590094
1.68717
1.84649
1.90687
1.95894
2.06493
2.16869
3.00912
3.86706
4.69931
5.56263
6.29889
6.75193
7.14601
7.63809
7.45268
8.04201
7.91771
8.34529
8.01152
7.59163
8.10851
7.95512
8.49004
8.34597
8.97692
8.78926
10.0077
12.3811
13.1642
12.5094
12.1996
12.7022
16.0872
22.9588
33.3468
40.385
65.471
79.87
126.157
194.39
132.711
186.08
258.601
183.3
307.501
443.146
777.095
750.686
836.815
1300.71
2008.39
2241.28
2629.06
4817.29
5177.9
3908.33
4306.63
2140.84
2073.51
788.524
957.899
656.855
348.486
356.615
371.309
201.419
165.321
150.335
54.6512
54.7909
55.7336
60.1297
39.3806
28.8598
19.8577
14.8831
13.2141
12.1647
11.5415
9.60416
8.90693
8.32242
7.76723
7.45881
6.97989
7.17325
7.33726
6.75291
6.94246
6.46093
6.35728
5.89886
5.34418
4.51205
3.58174
2.63489
2.47514
1.63489
1.82945
1.55517
2.4847
3.48067
4.43046
5.18478
5.74582
6.23408
6.00508
6.57873
6.43124
5.90035
5.3799
5.5208
5.34585
4.88319
4.2727
3.33697
2.34529
2.11855
3.19449
4.12292
4.80827
4.67312
5.31132
5.77894
6.30903
6.86031
7.32836
7.82985
7.72056
8.17536
8.11421
8.71301
9.8064
11.0177
10.1817
11.7183
14.4849
16.5093
19.6362
27.6787
46.139
46.0923
75.4441
61.3017
117.167
122.603
264.198
485.74
691.203
1376.9
1609.18
2569.85
5188.23
9593.53
13873.3
14020.6
23294.5
37149.8
44669.6
55308.7
55833.3
54529.9
54852.8
54590.6
37882.2
37869.9
23921.4
24756.8
24625.4
13534.5
8263.48
8135.31
8296.63
8736.36
4408.52
4150.44
2618.6
2501.81
1127.22
704.29
551.539
299.971
295.684
190.719
95.7872
98.274
112.379
105.652
104.009
61.2219
39.7666
36.7147
27.0201
18.2244
17.5907
13.8341
11.4866
10.0912
9.22868
8.65185
8.32975
7.76498
7.21307
6.62706
6.09455
6.31432
5.98287
5.29146
4.42342
3.44119
2.41334
2.44746
2.77091
2.58164
2.04762
2.51636
2.39966
2.10714
2.45148
2.63106
2.3698
1.8527
1.81937
2.25219
2.31481
1.99816
3.05704
3.25269
3.38217
2.91554
3.07384
3.17055
3.36941
3.55697
4.36456
5.03739
4.85451
4.51514
4.67714
3.56727
3.65837
2.48405
1.79063
1.6567
2.56629
3.84857
2.384
2.33718
2.72255
2.49095
2.2816
2.32807
1.79324
1.78531
1.86048
3.08928
1.43024
1.54525
1.80653
1.52289
1.20815
1.30228
2.00374
2.09112
2.49562
2.26902
2.36561
1.6491
1.78147
3.38157
2.96529
2.55037
3.08788
1.90145
2.36031
2.54269
2.87608
2.61707
2.50233
2.05453
2.03533
4.29638
4.54336
4.1885
3.89398
4.65769
5.02714
5.33823
5.8282
6.61283
6.96409
7.32276
7.01374
6.70867
7.16235
7.55057
7.30038
7.69603
7.95436
8.68101
8.45666
8.21217
7.54919
7.91929
8.64955
9.18736
8.77919
8.97911
8.56698
7.95051
7.31474
6.75733
7.05104
6.13701
7.69984
7.12878
7.33711
8.01744
8.29609
8.53422
8.02258
7.48632
6.86037
6.37258
6.93674
6.85317
7.30662
7.8449
8.36959
8.57474
8.12278
7.61155
7.90916
8.1881
7.65131
7.88552
8.42707
8.10905
7.5939
7.25529
6.67222
6.26439
6.81791
6.84801
7.2318
7.8244
7.53457
7.90061
8.26531
8.58911
8.81334
9.09998
8.93045
9.2466
9.42823
9.47526
9.44803
9.23672
8.85204
9.32385
8.98253
9.3751
9.80644
9.589
9.43468
9.3247
8.78682
9.16996
9.69324
10.0958
10.4883
10.8796
10.5084
10.5516
10.5632
10.9739
11.2998
10.3053
9372.58
622.014
59.5308
10.3612
6.94256
5.81183
4.74852
3.31359
1.9633
0.545387
0.539683
0.406715
0.398359
0.404729
0.419664
0.582053
0.549144
0.516922
1.7563
3.67534
1.56046
1.63592
0.442893
0.499073
0.86356
0.869227
0.909926
0.911482
1.41991
1.07388
1.13724
0.678472
0.867363
0.974701
0.755957
0.769998
0.575164
0.594921
0.861723
1.13626
1.05425
0.823788
0.791589
0.513337
0.518762
0.700371
0.696527
0.906238
0.799598
0.627886
0.621165
1.00182
0.932295
0.54582
0.4303
0.521489
0.608376
0.633463
0.650718
0.742679
0.769028
0.865601
0.664169
0.648599
0.481972
0.476958
0.734606
0.719539
0.901852
1.03637
1.23984
1.51904
1.15663
1.51503
1.20815
0.991348
0.90289
0.700444
0.712959
0.459345
0.489355
0.658072
0.675266
0.782131
0.677664
0.487268
0.460771
0.676776
0.742124
1.02587
1.26423
0.920014
2.58431
2.6708
2.68212
2.69035
2.92973
3.03117
3.22749
4.93218
4.41251
4.60081
5.39326
4.46357
3.83263
4.04037
4.19191
3.24781
2.61553
3.06536
3.35345
4.1683
4.04625
4.24128
3.62172
3.68747
3.87598
3.03256
2.93752
3.16197
4.87768
5.23106
4.46893
4.01059
4.2465
5.72168
5.97573
6.27704
6.65286
7.8584
8.2405
8.84096
7.88381
10.0939
9.55103
10.1897
9.03507
8.66583
8.29989
7.01644
6.72562
6.46664
7.64498
7.96852
8.59113
7.9589
8.94448
8.61627
8.3871
8.23353
7.68823
7.19191
7.06067
6.93492
6.74245
6.38496
6.14377
6.12806
5.81177
5.63772
5.67905
5.43196
5.34571
5.57521
5.52351
5.51267
5.49304
5.50677
5.51001
5.55341
5.55076
5.29597
5.30866
5.40926
5.25502
5.31005
5.40314
5.23392
5.24905
5.25573
5.08279
4.92603
4.71849
4.83535
4.97896
4.85152
4.7691
4.72183
4.46105
4.64471
4.57697
4.7665
5.00495
5.35045
5.93083
6.41695
6.91019
7.37504
7.90628
8.63597
9.03148
9.53952
10.1372
10.6933
12.3751
17.4285
18.7419
25.8314
29.4153
30.7966
36.7883
64.5678
135.453
288.612
352.945
664.664
960.144
1771.8
2973.99
4650.11
7592.64
9344.9
15558
23568.1
34072.5
51903.2
51370.6
35164.1
23644.1
12884
13965.9
7261.08
5257.85
2843.44
2338.82
726.278
439.424
299.992
260.191
119.82
51.2346
32.4071
50.0676
40.1242
27.7751
27.3989
16.5557
11.6608
11.6501
10.3043
9.62123
9.89969
8.82434
8.0033
7.82893
7.07318
6.85233
6.08503
5.46695
5.43221
5.00837
5.0467
5.05939
5.15463
5.25816
5.35739
5.53537
5.15901
5.34019
5.65751
5.77863
6.16559
6.00654
5.85707
5.73945
5.64477
5.56763
5.50092
6.14966
6.02551
6.84679
6.85106
7.05047
7.4133
7.89371
8.35108
9.13588
9.68973
10.9941
11.9148
12.6462
14.8988
14.9535
17.9535
17.2182
24.5284
34.9934
52.167
67.8966
98.9122
72.5883
109.139
306.54
336.399
327.909
606.086
2041.66
3658.26
5977.83
7302.6
13633.4
16586.2
23746.1
36192.7
52485.8
52962.4
34336.1
23912.7
22212.1
13439.9
7329.3
4661.76
4542.24
1969.32
532.938
736.992
476.92
283.615
132.939
293.837
148.187
76.3517
68.9126
29.8186
25.1026
25.1571
18.1615
14.7232
13.2695
13.0454
11.4253
10.7842
10.1102
9.17909
8.85686
8.10849
7.99559
7.3736
6.70783
6.19417
6.21096
6.30258
6.45552
6.5797
6.68398
6.8789
6.37169
6.00927
5.62024
5.80437
6.02947
5.69648
6.0535
5.97548
6.15647
5.76586
6.13861
6.03884
6.21197
5.79825
6.21586
6.10164
6.07698
6.08732
6.08585
6.09645
6.10542
6.12552
6.17511
6.36616
5.91482
6.47076
6.41334
6.68808
6.29111
6.90977
6.90028
7.23822
6.8421
7.53611
7.63199
7.82337
8.21091
7.87347
8.01569
8.76018
8.69721
9.31545
9.2484
8.89567
8.4861
8.29119
7.93608
7.69308
7.66747
7.3326
7.1592
7.16565
6.99048
6.93076
6.78725
6.76789
6.74338
6.73124
6.71855
6.70477
6.78272
6.7662
6.79523
6.64812
6.65833
6.73079
6.5578
6.56583
6.56536
6.37571
6.42485
6.87641
6.93312
7.13044
7.34392
6.99057
7.37487
7.31396
7.51795
7.10802
7.53527
7.47684
7.41114
7.45562
7.728
7.22891
7.77655
7.74829
7.26591
7.76533
7.79748
7.30132
7.84494
7.63939
7.70765
7.92165
8.16199
7.74773
8.37478
8.39564
8.7339
8.35084
9.0188
9.10792
9.2816
9.57298
9.9254
10.0978
10.4088
9.55162
9.77634
8.94672
9.19221
9.45507
9.71253
10.135
10.6219
11.334
10.9806
10.6278
10.3271
10.0632
10.8969
10.7201
11.3689
11.6033
11.8765
11.1952
11.5426
11.8498
12.1377
12.5001
11.8209
11.8745
12.6108
13.2036
12.7253
11.857
12.2497
13.0753
13.7886
13.7704
14.1685
14.6346
14.927
15.1059
15.1113
14.7648
14.3613
14.3462
14.5485
14.3237
12.8969
12.1115
11.9138
11.0583
11.5967
11.1718
11.6351
12.3595
12.0065
12.4905
13.133
13.6864
14.1477
14.3314
14.4465
14.0797
13.8333
13.625
13.7313
14.1133
14.5623
14.7934
14.4375
14.6192
14.8553
15.1807
15.128
15.3117
15.4816
15.9432
16.9861
17.7145
17.0858
15.7623
15.515
15.4561
15.3365
15.0894
14.7047
14.4334
14.8305
15.0476
14.842
13.8171
13.682
13.9686
13.5131
13.6985
13.2207
12.9324
12.6707
12.7324
13.2075
13.687
13.3352
13.1385
12.8801
12.5739
12.5138
12.241
11.8136
11.5132
11.2366
11.1602
10.8719
10.5474
10.4768
10.3539
9.83472
9.76566
9.59403
9.37764
9.24325
9.20388
9.1011
9.21969
9.18858
9.79741
9.79643
9.42458
8.98863
8.96085
8.90196
8.6913
8.72354
8.68691
8.48415
8.52594
8.50507
8.35168
8.23407
8.06398
8.10485
8.23184
8.07861
8.057
8.01847
7.38884
6.74451
6.81241
6.87716
7.25796
7.4737
7.41719
7.18245
6.85016
6.29108
5.60295
5.13713
4.67643
4.42503
4.35814
4.3175
4.55787
4.18531
3.67386
2.94939
2.56216
2.44556
2.33945
1.84671
1.01255
0.814132
0.635384
0.561565
0.55701
0.574832
0.439358
0.303953
0.327777
0.378228
0.270764
0.363728
0.422434
0.486688
0.423539
0.329489
0.402173
0.48635
0.404703
0.328943
0.406368
0.333404
0.435355
0.383415
0.301985
0.394276
0.34949
1.15626
1.51923
1.54423
1.22864
1.03848
2.08959
0.850663
0.20545
0.365395
0.349151
0.260164
0.90666
1.13682
1.37496
1.6057
1.85687
1.97836
1.78563
1.78751
2.73619
3.41565
3.96998
4.60509
5.14442
5.59501
5.92815
6.22213
6.59593
6.97157
7.38888
7.69312
8.05582
8.51324
9.22239
10.4839
11.452
15.7704
24.0731
36.6926
71.4461
142.36
258.3
377.93
425.424
285.946
573.445
931.435
653.991
559.748
330.683
301.729
112.249
129.877
68.2614
58.933
42.6189
33.686
45.5914
34.511
27.7058
26.8947
22.1794
16.9645
17.1091
13.9394
13.6711
11.665
9.1429
9.28223
8.66208
8.10232
7.91027
7.6132
7.4385
7.21174
6.77034
6.20523
5.67512
5.24607
4.64353
4.00261
4.0343
3.12905
2.19545
2.25628
3.1937
3.15364
4.02116
4.65727
5.18356
5.6563
6.14079
6.66303
7.18609
7.05666
7.62238
7.44205
7.98261
8.47117
8.42757
8.41732
8.47684
7.92236
7.96255
7.50809
7.63184
7.29927
6.81937
6.16911
5.65237
5.10941
5.19527
5.34824
4.9459
4.20658
4.33092
3.91573
4.11731
4.27603
4.63688
3.72031
3.82781
5.47238
5.66244
5.33608
4.97171
5.16132
5.50001
6.30187
5.91599
5.59263
5.99991
6.36455
6.01213
4.59431
2.82318
1.26346
1.32639
1.71627
1.62858
1.5762
0.522404
0.361422
0.345727
0.520316
1.51429
2.58048
1.14341
1.1873
1.41541
1.37317
1.36116
1.34031
1.36946
1.70927
1.67214
1.70056
1.72263
2.07223
2.32464
2.52098
2.22836
2.23551
1.7906
1.75064
3.06191
2.6539
2.71667
2.81806
3.78523
3.65868
4.07566
4.81772
4.39724
4.53099
4.67323
4.88098
5.05352
5.85379
6.11123
6.37917
6.60847
6.81802
7.35158
7.22019
7.76525
7.56505
7.00205
6.71313
6.43895
6.7949
6.22026
7.35342
7.09515
7.34059
7.78398
7.53543
7.94925
7.9064
7.95988
7.54664
6.32962
4.7734
4.24488
2.39442
2.28413
2.10491
4.1913
1.81788
1.74913
0.489641
0.604284
0.640498
2.24976
2.35478
3.9967
3.76598
4.34102
5.6993
5.26925
5.55438
6.74544
7.33422
6.41101
6.8437
7.14892
8.12969
10.0587
7.83252
7.57731
7.84245
8.59094
7.40453
6.26004
5.2827