/*--------------------------------*- C++ -*----------------------------------*\
  =========                 |
  \\      /  F ield         | OpenFOAM: The Open Source CFD Toolbox
   \\    /   O peration     | Website:  https://openfoam.org
    \\  /    A nd           | Version:  7
     \\/     M anipulation  |
\*---------------------------------------------------------------------------*/
FoamFile
{
    version     2.0;
    format      ascii;
    class       surfaceScalarField;
    location    "19";
    object      phi;
}
// * * * * * * * * * * * * * * * * * * * * * * * * * * * * * * * * * * * * * //

dimensions      [0 3 -1 0 0 0 0];

internalField   nonuniform List<scalar> 
43852
(
-0.000474321
0.000549783
0.00247304
-0.00415662
0.000497031
0.000567633
0.00125475
-0.00187415
-0.00223577
-0.000272871
-0.000239735
-0.00334283
0.00658961
-0.00522805
0.00354666
-0.00472862
0.000126862
0.00404759
-0.00347948
0.00370011
-0.00435549
0.00468566
-0.00577574
-0.00447566
0.00351556
-0.00370986
0.00495609
-0.00376557
-0.00414263
0.00372628
-0.00162568
-0.00471245
0.00228155
-0.00390811
0.00276218
-0.00211901
-0.00452706
0.00364679
-0.00169461
0.00236744
0.00162895
-0.0024016
-0.0038066
-0.00150872
0.0018084
0.000477389
-0.000192188
-0.00228127
-0.00269737
0.00154533
0.000104453
0.000109469
-0.00217646
-0.000229494
-0.00297488
0.00726055
-0.0117201
0.0101977
-0.00092515
-0.00347021
0.000723254
-0.00104796
-0.00164056
0.00273946
-0.013108
0.00406859
0.00271335
-0.000999523
0.00199896
-0.00200059
0.00186171
0.0019982
-0.0624973
-0.000168513
0.0117283
0.0143942
0.0121185
-0.000592934
0.00748893
0.00441454
-0.0568705
-0.000282833
0.00481483
-0.00349473
-0.00665994
-0.00669204
-0.00591794
-0.00412347
0.00562548
-8.98004e-05
-0.00729731
0.000205882
0.000395502
-0.00352715
0.00450347
0.000578634
-0.00293956
0.00439413
-6.77488e-05
-0.00129512
0.00491446
-0.000695051
0.0040154
-0.00127493
0.00495363
-0.000423925
0.00581765
-0.00289612
0.00453173
0.00684828
-0.00358728
0.000311638
0.00392858
0.00610983
-0.00758096
-2.61548e-05
0.052714
1.82539e-05
-0.000996044
0.0402761
-0.00535704
-0.00116505
-0.00616925
0.0399142
-0.00723079
-0.0040708
-0.00589568
-0.00666776
0.0564642
2.11587e-05
-0.000405908
0.00599334
-0.00307052
-0.00308412
0.00600064
-6.43101e-05
-0.000213034
-1.41623e-05
0.00947795
-0.000392285
1.78116e-05
-2.27916e-05
0.0128558
-0.000714454
0.000253188
-0.000780818
-4.21973e-05
0.0132165
0.000147369
-7.40454e-05
-4.39197e-05
0.00228345
0.000111749
0.000792138
-5.53281e-05
0.00222271
0.000112632
0.000695803
-7.90542e-05
0.00215381
-2.98352e-05
0.000667314
-0.000117516
0.00206842
-0.000187204
0.000540413
-0.000102668
0.00174011
0.000561717
-0.000142734
0.00150137
-0.000216152
-0.000245027
-9.63409e-06
-0.000142329
0.0126513
0.000366836
0.0130647
0.000131942
1.42808e-05
0.0133387
-0.00122027
0.0120297
-6.71674e-05
-5.68212e-05
0.00137148
0.0127284
0.000116342
0.0133445
-0.000346356
-0.000394381
-3.99859e-05
-0.000379172
-7.62715e-06
0.0133987
-7.73163e-05
-8.00363e-05
3.84185e-05
0.00164849
-0.000190436
-1.30541e-05
0.0016186
-2.21037e-05
0.00159117
1.66751e-05
0.000146536
5.20781e-07
0.0016097
3.90804e-05
-2.19067e-06
0.000408509
0.00159626
3.67328e-05
0.000417599
3.44441e-05
-0.000148859
0.00159601
-0.000210313
-0.00026741
-2.62239e-05
0.0133472
-2.52762e-05
0.0133312
0.000211913
0.000164834
-2.57604e-05
0.0131731
0.000280481
0.0112468
-0.000314413
0.00561152
-0.00144717
0.0113033
2.28077e-05
-0.000118794
0.0010963
0.0129416
0.000296579
0.0133673
-0.000416343
-0.000371583
-3.38029e-05
-0.000167788
-5.26581e-05
0.0136718
7.67728e-05
-0.000179375
0.00161494
-1.87933e-05
-7.87895e-05
3.32537e-05
0.00165527
5.77714e-05
3.20127e-05
0.00159806
0.000211433
0.00015359
-3.67248e-05
0.00150808
0.000196598
0.000572684
-0.000158116
0.00152766
0.000544275
-0.000112557
0.00180018
3.47572e-05
1.54265e-05
-0.000305625
-0.000666895
0.0128562
-9.48494e-05
0.0135612
0.000178691
-0.000363152
-4.80623e-05
0.0128757
0.000169739
0.0114179
0.00312292
-9.53502e-05
0.00882654
1.63183e-06
1.25903e-05
0.00511736
0.00765034
0.00505025
-0.0031335
-0.000324748
0.00795068
-0.00690338
-0.00588898
-0.00413069
0.0515582
-1.10793e-05
0.0321574
-0.00598134
-0.00585714
0.0347335
-0.00403169
-0.00583915
0.0526163
5.48307e-05
-0.000694231
0.00494781
-0.00127261
-0.000580785
0.00492543
-0.00128256
-0.000209265
-0.00293263
0.00439739
-0.00352553
0.00448859
-0.000147831
-0.00123097
0.0120016
0.000234499
-0.000396003
-1.71215e-05
0.0133177
2.73614e-05
-0.000815401
-0.000732176
0.000203474
-0.000182014
0.0130825
-0.000113627
9.70064e-05
-7.19989e-05
0.00223017
-4.00371e-05
-6.23977e-05
0.00228772
0.000750465
2.52448e-05
0.00232426
-5.329e-05
0.000772378
-5.2291e-05
0.00231504
0.000852655
6.54649e-05
0.00223286
-1.1288e-05
0.000785773
8.03283e-05
5.58067e-06
0.00293217
0.000303871
-5.52276e-05
0.000385125
0.00322289
0.000646566
-0.000122415
0.000668619
0.000149387
0.000292285
0.000696828
-0.000798449
0.000136556
0.00186022
-0.000267535
0.00178798
0.000134372
-0.000189929
0.00230684
0.000476266
-0.000154123
0.00254698
0.000232459
-2.72897e-05
0.00221717
-0.000127611
-0.000169465
0.00228735
-0.000468485
-0.0001606
0.00182763
0.000101622
0.000100667
0.00154543
0.000145922
4.38865e-05
0.00202951
-0.000373002
-2.51305e-05
0.00206455
0.000156504
3.36583e-05
0.00155742
0.000173659
3.48e-05
0.00187816
-6.53632e-05
-8.37089e-05
0.00162359
-2.94942e-05
-0.000165374
0.00163752
-0.000245137
-0.000147872
0.00187033
0.000256168
-2.76516e-05
0.00148393
0.000162308
4.00923e-05
0.00158155
-2.40882e-05
-0.000102174
0.00128339
-0.000295946
-7.29628e-05
0.00126929
-0.000236907
0.00010131
0.00156759
0.000254437
-3.90154e-05
0.00121923
0.000417385
-0.000192707
0.000880359
3.96544e-06
-0.000735036
0.00166357
-0.000146662
-0.000576885
0.00129965
-0.000205207
-0.000213365
0.000966258
-0.000245076
3.6169e-05
0.00133805
-8.81878e-05
0.000111068
0.0018546
0.000456775
8.44922e-05
0.00148033
-8.34386e-05
-2.83753e-05
0.00206953
-7.92799e-05
1.87065e-05
0.0020574
0.000481719
0.000101622
0.00155994
0.000113837
0.00188281
-0.000166922
-0.000311826
0.00240751
-0.000170932
-0.000394511
4.45988e-06
0.00218874
0.000349996
-0.000120833
0.00231205
0.000620787
0.000117859
0.00166981
0.000211451
0.00194005
-0.000182653
-0.000242617
0.00200433
-0.000327663
-0.000780708
0.00201625
-0.000177745
-0.000354852
0.00184104
0.000132601
0.000178614
0.00248254
-0.000201271
0.000476166
0.00266013
-0.000162629
0.000259908
-3.67514e-05
0.00236169
-0.000137415
0.00243546
-0.000183633
-0.000494436
0.00193686
-0.000167703
0.000104749
0.000106025
0.00161655
0.000156933
4.1668e-05
0.00212896
-0.000391735
0.00217234
-2.72568e-05
0.000160689
0.00161873
3.76605e-05
0.000179827
3.53552e-05
0.00195656
-6.85954e-05
0.00168914
-8.47705e-05
-3.21059e-05
0.00169108
-0.000166233
-0.000243747
0.00194346
-0.000148142
0.000270024
-2.78791e-05
0.00153144
0.000215666
5.71286e-05
0.00165092
-6.76936e-06
0.00133189
-9.52026e-05
-0.000195197
0.0013377
-9.8553e-05
-0.00029429
6.41222e-05
0.00162317
0.000301248
-2.49642e-05
0.00154342
-1.13655e-05
0.00189222
-0.000128652
0.000168687
0.00170601
-0.000167765
-0.000216192
0.00160702
-7.3071e-05
1.39543e-05
0.00198687
2.41324e-05
0.000338367
6.22903e-05
0.00147849
-3.51389e-05
0.00216461
-0.000113119
-0.00058023
-4.69527e-05
0.00224786
-0.000274867
-3.16145e-05
0.00266127
0.000202389
-0.000193606
0.00248122
0.000597972
2.48924e-06
0.00234206
-3.97957e-05
-0.000254861
0.00228545
9.17603e-06
-0.000320851
0.00248722
0.000347778
-0.000192984
0.00222121
0.000750228
0.00013734
0.00166461
0.00022733
0.00185567
-0.000167071
-0.000185274
0.00184453
-0.000301838
-0.000563139
0.00181024
-0.000165978
-0.000317328
0.000119627
0.00156193
0.000382083
-9.51333e-05
0.0021557
0.000287702
0.00204699
2.44119e-05
-8.68599e-05
-0.00013674
0.00220152
-0.000131969
0.00172118
-0.000445189
-0.000165388
0.00189167
8.04803e-05
9.66831e-05
0.00157422
0.000178779
3.48871e-05
0.00212449
-0.000428573
-2.67244e-05
0.00214251
0.00018319
3.30754e-05
0.00163169
0.000156294
3.11196e-05
0.00194208
-5.7197e-05
-9.05904e-05
0.00170212
-4.88234e-05
-0.000168695
0.00168972
-0.000250725
-0.000160856
0.00193746
0.000250993
-2.63399e-05
0.00150854
0.000163373
3.46412e-05
0.00161153
-2.66531e-05
-0.000104059
0.00129174
-0.000298784
-7.47678e-05
0.0012707
-0.000239572
9.98907e-05
0.0015561
0.000246588
-3.95181e-05
0.00120964
0.000403287
-0.000191701
0.000872351
-8.35408e-07
-0.000713717
0.00161759
-0.00014404
-0.000567372
0.00126747
-0.000201688
-0.000203546
0.000921811
-0.000236469
3.98375e-05
0.0012866
-0.000100562
0.00010953
0.00177255
0.000445512
7.66701e-05
0.00142953
-0.000104264
-2.35257e-05
0.00195839
-4.32074e-05
2.18007e-05
0.00198297
0.000395905
0.00010036
0.00146892
0.000174582
-0.000163378
0.00181857
-0.000404418
-0.000142084
0.00223694
-0.000250432
1.20646e-05
0.00216482
0.000187519
-0.0001075
0.0021095
0.000712368
0.000107537
0.00168485
0.000108178
-0.000150128
0.00178842
-0.000338137
0.00194403
-0.00026402
-0.000305102
0.00183133
-0.000596321
0.000681281
-0.000266343
0.000647957
-4.96126e-06
0.000347388
0.00313934
-0.000749573
0.000377668
0.00286324
-0.000715672
0.000375997
-0.000569656
0.0027848
-0.000132094
-0.00036086
0.00245554
-0.000397437
0.00069762
-8.49279e-05
0.000645785
0.000105131
0.000219154
-0.00047561
0.00316519
5.47421e-05
-0.000310811
0.00283132
-0.000308583
0.000977857
-6.6514e-06
0.00069382
0.00026921
2.74418e-05
-0.000445532
0.00329466
0.000247045
-0.000244285
0.002799
0.000358205
-0.00015411
0.00190442
0.000284161
0.000235434
-2.81826e-05
4.39723e-05
-0.000503485
5.49902e-05
-0.000394801
0.000108326
3.83277e-05
-0.000195738
0.00211891
0.000442883
-0.000464402
-0.000315398
0.00324264
0.000284324
-0.000220807
0.00250733
3.48783e-05
0.000588698
-0.000221877
0.000583894
-0.000433919
-0.000277506
0.00240921
6.45719e-05
-0.00024717
-0.000501739
0.00311268
0.000227228
0.000688068
-0.0001559
0.000959975
0.000248155
-0.000194266
-0.000399082
0.00294671
3.69948e-05
0.000742508
-0.000204876
0.000736743
-0.000352553
-0.000329389
0.00278858
8.94085e-06
-2.74222e-05
-0.000491182
0.00342464
0.000291344
0.000734495
-0.000105625
0.00104933
-0.000157332
-0.00032152
0.00299376
8.31298e-05
0.000204329
-0.0004988
0.00331
0.000406624
0.000683465
0.000734222
-0.000622847
0.0031719
5.1412e-05
0.000122767
0.00222182
-5.98945e-05
0.000105331
0.00289768
-0.000262143
0.00351028
0.000349649
-0.000357118
0.00263605
0.000144954
0.000382438
-0.000563525
0.00295675
-0.000564659
0.00329852
0.000454047
-0.000319566
-0.000137689
0.00295976
-0.00057269
0.00334185
0.000500963
-0.00056664
-0.000477902
0.00285898
0.000486057
-0.000564658
0.00284086
-0.000518128
0.00294449
-0.000541321
-0.000494026
0.00286505
-0.000257673
-0.000252869
0.00280249
-0.000302399
-4.00184e-05
0.0024574
0.0003551
-1.79646e-05
-4.0805e-05
0.00122823
1.14783e-05
0.00251524
-0.000187162
0.000395779
7.53802e-05
0.00163928
-1.29851e-05
3.23524e-05
0.00160572
0.000152857
8.73579e-07
0.00162111
-8.75384e-07
0.000409499
0.00160428
-0.000146316
3.79033e-05
0.000412602
0.0015907
1.60802e-05
3.84335e-05
1.32389e-05
0.00160389
0.000185499
1.46337e-05
4.83271e-05
0.00158276
7.78365e-05
-1.54102e-05
0.000413648
0.0015994
-7.42961e-05
3.20785e-05
0.000367832
0.00162578
6.61221e-05
3.25349e-05
0.00156983
2.72105e-05
0.000209412
-3.76087e-05
0.00147545
0.000169053
0.000188906
-0.00016204
0.000586521
0.0014806
3.85987e-05
-0.000124986
0.000564448
0.00171725
-9.53902e-05
-0.000135287
0.000691682
0.00205639
-9.54564e-05
0.00215189
0.00068393
7.84212e-05
0.00211071
-0.000103667
0.000137325
0.0027161
-0.000187546
-0.000588511
0.00304591
3.63727e-05
0.00213975
-8.66535e-05
0.00278798
-0.000233664
0.00336632
0.000313695
-0.000336809
0.00256375
0.000336709
-0.000527703
0.00288415
0.000245616
-0.000499468
0.00311222
-0.000332564
0.00298433
-0.000528455
-0.000421379
0.00315106
-0.000552877
-0.000464677
0.00283178
-0.000290284
0.00243401
0.000348328
0.00121521
0.000294077
0.00247135
-0.000118342
0.00288054
-0.000207256
0.00245994
0.00121317
0.0034341
0.000351271
0.000480375
-0.000235361
-0.000827308
0.0116287
0.000574763
0.000671692
-3.11716e-05
-0.00271936
-0.00310843
-0.00316813
0.000130865
-3.05909e-05
0.000986207
0.000805441
-0.0012542
-0.0036337
0.000371444
9.68592e-05
0.00245353
0.000462364
0.000430425
0.000498926
-0.000775644
-0.000922621
0.000456008
0.000372063
0.00349426
-0.000747836
0.000696396
0.00031217
0.00328787
-0.000601219
0.000465685
0.000306697
0.00289497
-0.000468123
0.000672914
0.000111054
1.05167e-05
-0.000326225
-0.000235767
0.00179049
-0.000225534
-0.000646652
0.00013303
8.13577e-06
-0.000256638
0.00137002
-2.82996e-07
4.21241e-05
0.00146943
-3.21137e-05
-0.000124325
5.68828e-05
0.00154035
-2.82439e-05
6.4656e-05
-0.00010506
0.000927864
-0.0015649
0.000986434
0.00120022
0.00106719
-1.57559e-05
1.5122e-05
-0.000133929
0.00108326
2.17515e-05
2.38164e-05
-6.03793e-05
0.0010066
2.41583e-05
-4.68797e-06
5.95299e-05
0.000507677
-0.000858176
0.000669668
0.000695821
0.000690728
-0.000260042
6.66168e-05
1.59685e-05
0.000616945
5.19424e-05
8.10137e-05
-5.75453e-05
0.000612
-6.66967e-05
-3.21947e-05
0.000105215
0.000409237
2.77977e-05
0.000294686
-0.000117547
0.000240784
-0.000267797
0.000122612
0.000313137
0.000282612
4.83957e-06
-6.52901e-05
2.12896e-05
0.000644218
0.000102388
-0.000112522
-0.000351791
0.00123892
-0.000409601
-0.000319669
0.000134489
0.00104768
-0.000679159
0.00117853
-0.000307849
0.000395826
-0.0014412
0.00123315
0.000859307
0.00043666
-0.000722916
0.000357794
0.00032627
0.000729991
-0.000498285
0.0004931
-0.000289032
0.00122902
0.000602449
-0.00122893
0.000126141
0.000556345
-2.21844e-05
0.000231329
0.000461867
0.000399122
-0.00072319
-5.45708e-05
0.00093245
0.000387232
-1.95583e-05
-0.000227292
0.000260219
0.00127362
0.000289128
-0.000143786
-0.00103251
0.00246883
0.000863198
-0.00118333
-0.000875104
0.00191977
2.65554e-05
0.00136562
-0.000843248
0.00155786
-0.00186193
-0.00014
0.00236355
0.00137523
4.89097e-05
-0.000464887
0.000599851
0.0009324
0.0011284
-0.000744329
5.88486e-05
0.00121161
0.00112979
-0.000282631
-0.00112617
0.000766221
0.000733085
-6.20744e-05
-0.000225468
0.00024484
-0.000338825
0.000402218
0.000457725
0.00024881
0.000449728
-0.000220425
-0.000232857
0.000850053
-0.000294977
8.74484e-06
-0.000314756
-4.21541e-05
7.60996e-05
-0.00024044
-0.000712801
-4.3192e-05
-0.000332755
0.000376722
-0.000711428
-0.000863274
0.000485022
-0.000100226
-0.000180031
-0.0011386
-0.000322913
-0.000294442
-0.00078702
9.4774e-05
-0.000151466
-0.000185739
-0.000841731
2.14463e-05
-0.000940292
-0.000403765
-0.000745414
0.000681494
-0.000427204
-0.000810882
-0.00104564
0.00132598
-0.000214771
-0.00062424
0.000206174
-0.000564762
0.000896986
0.000173923
-0.000224003
0.000686689
0.000101993
0.000811767
-0.000166463
-0.000646864
-0.000222626
0.00128176
0.0013053
-0.00108731
0.00147853
-0.000344781
0.00165118
-0.000822058
-0.00126099
0.00191038
0.00115541
0.000390123
0.000715329
-0.000609675
0.00113057
-0.000510433
-0.000277374
0.000813103
-0.00045908
0.000785215
1.77427e-05
-0.000850312
0.000231291
0.000355734
-0.000789769
0.000658802
0.000923916
-0.000989165
-0.00128008
-0.000487354
0.00151607
0.000450687
-0.00149715
-0.0010245
0.00157391
-0.000862232
0.00174382
-0.00288292
-0.00064077
0.000994309
-0.000711119
4.05898e-05
0.001748
-0.000769728
0.000561823
0.000526416
-0.000277314
-0.000991271
-0.000767913
0.000823103
-0.00128027
-0.000308869
-0.00130904
-0.000960934
0.00183852
-0.000848638
-0.00389236
0.000747185
-0.00256938
-8.84527e-05
-0.00037101
-0.000792686
2.8101e-05
-0.00151419
0.00129201
-0.000674602
-0.00125568
-0.000154715
0.00161702
0.000505833
-0.000801445
-9.91942e-05
0.000668014
0.000514531
0.00095276
-0.00337355
0.00180715
0.000212012
-0.000414027
0.000409788
0.000306931
-0.000791824
-0.000603783
0.00217183
-0.000133036
-0.0010995
-0.000111616
0.000883917
3.33311e-05
0.000888445
-0.00107733
-0.000775305
-0.000167787
0.000560428
-0.000608515
-0.000526031
0.00156231
0.00164056
0.00112555
-0.00197308
0.000418107
-0.000650407
-0.00375483
0.00252886
-0.00209146
-0.0033991
-0.000992267
0.00272775
-0.000987009
-0.00219565
0.000414973
-0.00210903
-0.00015448
-0.000573777
-0.00120658
0.000895787
-0.00122453
-0.000661103
-0.000663563
-6.09633e-05
0.000658403
-0.000658541
0.000224867
-1.48983e-05
-0.000770623
2.72078e-05
0.000167018
0.000402941
-0.000373514
0.000689896
6.10629e-05
-0.000736765
0.00119712
-0.00105762
0.00143808
0.000519034
-0.00040897
-0.00035109
0.000770144
-0.000634897
-0.0019531
0.000320161
-0.000995184
-0.00122646
0.000633593
-0.000840531
-0.00146483
-0.000360468
0.000188015
-0.00124238
-0.000787953
0.000623674
-0.000461123
-0.000860607
-5.27051e-05
0.000131343
5.9276e-05
-0.000551089
0.000195446
-0.000743746
0.00048022
0.000160544
-0.000872409
0.000221111
-0.000252779
-0.00134843
-0.000613165
-0.000899828
-0.000253927
-0.00060334
-0.00039047
-2.73258e-05
-0.000377656
0.000396411
-0.000428159
-0.000623191
0.000264065
0.00081311
-0.00026982
-0.000169918
-0.000180473
-0.000131094
0.000281834
-3.1392e-05
-0.000193022
-0.000235977
0.000177805
-0.000225135
-0.000380684
-0.000159797
-0.000140877
-0.000255173
-0.000103402
-5.02456e-05
-0.000580023
-0.000350025
0.000483446
-0.00090996
-1.30254e-05
7.47253e-05
-0.000313404
-0.000833065
5.44803e-05
0.000182688
-0.000189245
-0.000712913
0.00016092
-0.000742732
-6.39313e-05
-0.000220328
-0.000568713
0.00032673
-0.000279822
-0.000457501
-3.69798e-06
-0.000575448
0.000108218
-5.3843e-05
-0.000500154
3.70575e-05
-5.41205e-05
0.000482496
-0.00067929
-0.000926725
0.000623349
0.000619404
-4.73937e-05
-4.4488e-05
0.000301651
-0.000139771
0.000602864
9.84497e-05
-0.000400812
3.52654e-06
0.000180191
3.92586e-05
-0.000611989
1.24787e-05
-5.02477e-05
-0.00050403
0.000101554
-0.000107089
-0.000913771
-0.000570058
0.000580804
-0.00103878
-0.000128848
0.00020902
-0.000266803
-0.000915992
-0.000146022
0.00029135
-5.46934e-05
-0.000962404
7.49277e-05
-0.0012267
-6.41846e-06
-0.000217609
-0.00102395
9.81801e-05
-8.21352e-05
-0.00107913
4.08397e-05
-0.00104863
4.58381e-05
-4.75795e-05
-0.000887074
-3.45909e-05
-0.000135407
0.000746842
-0.00112552
-0.00150461
0.000995834
0.00104071
-0.000304263
-1.01889e-05
0.000153314
-8.30253e-05
0.000919488
1.95662e-05
-0.000711507
-6.90003e-05
7.5848e-05
-9.33635e-06
-0.000778215
-5.24128e-05
-4.49786e-06
-0.000659353
-1.54842e-05
-7.63308e-05
-0.00126592
-0.000954299
0.000852607
-0.00150491
4.1069e-05
-0.000103974
-0.000269904
-0.00124997
-0.000181125
0.000196231
-0.000189597
-0.00121704
1.95455e-05
-3.42914e-05
-0.00152198
-0.000127762
-0.00153938
-7.38896e-05
-0.00136365
-5.80488e-05
-0.000138401
-0.00109645
-0.000121184
-0.000136695
-6.78038e-05
0.000535135
0.000759472
0.000387118
0.00144846
6.97102e-05
-6.88588e-05
-5.61752e-05
-0.00113679
1.01237e-05
-0.000143309
6.201e-05
0.000435513
0.00099808
0.000347987
-0.000106989
-0.000116015
0.00186206
0.000258642
-0.00194
-0.000291215
0.000913306
-0.00113681
0.00116358
0.000933116
0.00109032
2.77486e-05
-0.000132739
-6.58774e-05
0.00153975
-0.000128804
-0.00028795
-2.76575e-05
0.00143892
0.000260406
-0.000168615
0.00127836
0.000136919
-2.67262e-05
0.00066518
-0.000842418
0.000837574
0.000623024
0.000763149
8.90734e-05
-9.55225e-05
-8.6194e-05
0.00110071
3.36426e-05
-0.000328625
-3.7945e-05
0.00112375
0.000287643
-0.000206767
0.00102831
0.000130933
-2.19315e-05
0.000479129
-0.000667352
0.000675898
0.000543071
0.000492235
-1.26789e-06
2.3089e-05
-3.16326e-05
0.000632514
-2.89502e-05
-0.000165808
5.77406e-05
0.00051748
0.000174023
-0.000160295
0.000325441
8.13606e-05
-4.87262e-05
0.000208026
-0.000222591
9.16329e-05
0.000249181
0.000394546
0.000168584
-0.000356451
3.47744e-06
0.0014359
0.000298412
-0.000602333
-0.000735504
0.00255665
0.00070877
-0.00119852
0.00350678
0.000790422
-0.00142295
0.00187996
-0.00158259
0.00153172
0.00167689
0.00209521
0.00124781
-0.000585838
-0.000876629
0.00277647
0.00265513
-0.00185254
-0.00148353
0.00335357
0.00322376
-0.00317629
-0.000623615
0.00349802
0.00392641
-0.00189926
0.00187269
0.00175666
0.000395213
0.00104482
-0.000159995
0.000735272
0.000252722
0.000897767
0.00172003
-0.000882088
-0.000690252
0.00111643
0.002641
-0.00189973
-0.000959561
0.00104589
0.00163826
-0.000754521
0.00124163
0.000597359
-8.07518e-06
0.000600153
-0.000346202
-0.000939806
0.000296321
-0.000384198
-0.000422733
-0.000179065
0.000170458
-0.000508177
-0.000487075
2.53755e-06
0.000102737
3.36085e-05
-2.56192e-05
0.000117555
3.77348e-05
-0.000693832
0.000641193
0.000167923
-0.000195178
0.00116928
0.000918212
-0.00143767
-0.000481765
0.00127871
0.000519715
-0.000459018
0.000408044
-0.000371194
-0.000721267
0.000134637
-9.89725e-05
-0.000293071
0.000151057
-5.92144e-05
0.000711563
-0.000303202
-0.00142428
0.000722675
0.000825024
0.000168935
-0.000130952
0.000225822
-3.43665e-05
0.000230829
-0.0011034
-7.94025e-05
0.00013578
-0.000354635
2.77974e-05
-0.000175189
-0.00142406
-0.00125555
0.000314412
-0.000250233
-0.00112278
0.000487182
-0.000369624
-0.000768423
-0.000416313
-0.000633165
-0.000769205
0.000962937
-0.000328393
-0.0011553
-0.000261613
0.000480755
-0.00142384
-0.000237762
-0.00205285
-0.000272163
0.00182002
-0.000918821
-0.00236621
-0.00017454
-0.000948848
-0.00289662
-0.000939312
0.0015072
-0.00122004
-0.000731934
-0.00183752
0.00407737
-0.000819508
-0.00139106
0.00253792
-0.00126438
-0.00255702
-0.0014366
0.00311716
-0.000514031
-0.00284782
0.00188779
-0.000982028
0.00130501
0.000756689
0.00215061
-0.000357898
-0.00441887
0.0016441
0.00252691
-0.000506331
-0.0015045
-0.00130429
0.00189235
0.00344369
-0.00105726
-0.000123079
0.00279275
0.000303162
-0.00157238
0.00275028
0.000278905
-0.0010231
-0.000326683
0.00137418
-0.00131273
-0.000872817
0.00229067
0.000802366
-0.00204371
0.00157204
7.36791e-05
-0.00152362
-0.000995938
-0.00264598
0.00176258
0.00136009
-0.00159065
-0.001012
-0.00146477
0.000971566
-0.000616985
-0.00236497
0.000417828
0.00085172
0.00112215
-0.0010262
-0.0021724
0.000155977
-0.00174824
0.000641531
0.00194906
-0.000830752
0.00111101
-0.00372557
0.00249448
-0.000874138
-0.00462654
-0.000293802
-0.0031157
-0.00240238
0.00354586
-0.00202405
0.00102915
-0.000873707
-0.000502381
-0.000438829
-0.000297109
-0.000785183
-0.000945308
-0.000351281
4.99394e-05
3.5219e-05
-0.000322607
-0.000336654
0.000573788
0.00102233
-0.00121045
-0.000183161
-0.000556839
-0.00356302
0.00117561
0.00184609
0.00035831
-0.00382346
0.000251048
-0.000290985
-0.00287365
0.000808449
-0.000730372
-0.00159704
0.00297254
-0.00279285
-0.00145706
-0.0023718
0.00237605
-0.000586454
-0.00101386
0.00265884
-0.00729012
0.00363854
0.00674848
-0.000437851
-0.00373543
0.00139574
-0.00150586
-0.00172387
0.00200248
-0.00107037
-0.00294374
-0.0018389
0.000970988
-0.000149812
-0.000704862
-0.000492018
0.00177402
-0.00158956
-0.00153062
0.00281523
-0.0012885
0.00167019
0.00373109
-0.001833
-0.000753189
0.00162525
0.00245752
-0.000592497
-0.000466935
0.00106119
-0.00198985
0.00227467
0.00170603
-0.000813026
0.0012628
0.00129158
0.00167996
-0.000352298
-0.00398316
0.00184221
0.00104603
0.00222672
-0.000329478
0.00134094
0.00228473
-0.000304783
0.0015982
-0.00041726
0.00139108
0.00155445
-0.00116193
-0.000185207
0.001456
0.000707228
-0.000284874
0.00138547
0.000696908
-0.000311925
0.00133783
0.000702044
-0.000328097
0.000764178
-0.000458273
0.000610261
0.000421509
0.000255127
-0.000409017
-0.000459709
-0.000880072
0.000185535
-0.000666589
-0.000613974
-0.000254259
0.000292623
-0.000304203
-0.0006883
0.000317922
-0.000351395
0.000175806
0.000183953
0.000256287
-0.000100552
-0.00130121
0.00079352
0.000163022
1.50933e-05
-0.000125679
0.000304628
-9.7398e-05
8.16809e-05
0.000783633
-3.12864e-05
-0.000585502
-3.74837e-05
-0.00071138
-0.00148904
-7.25096e-06
-0.000262942
-0.00158015
-7.00671e-06
6.69454e-05
-0.00141513
-1.1613e-05
0.000151345
-0.000936087
-0.000394845
-1.80584e-05
-6.56735e-05
0.000309724
-0.00177417
-0.000254978
0.000783222
-0.00100785
0.00111979
-0.0010288
-0.00218807
0.000434497
-0.00128497
-0.00033746
-0.00079297
0.00126179
-0.000199378
-0.00210029
-0.000145992
0.00175695
-0.000303685
-0.000387111
-0.000590514
-0.000375007
0.00224557
-3.05081e-05
-0.00153514
-0.00018133
0.00179915
-0.000457061
-0.00358214
0.000582979
0.00111138
-0.00217315
-0.00468158
-0.000711447
-0.000813085
-0.0014184
-0.000545222
0.00130203
-0.000598334
-0.000892831
-0.000316043
0.00175164
-0.0010857
0.00185939
0.000647544
0.00110457
0.000841596
-0.000401778
0.00256318
-0.000748414
0.0029297
-0.00267666
0.00142353
-0.000378314
0.00419338
0.00696044
-0.0005115
0.000214468
0.00365192
0.00242228
0.000672666
0.00346468
0.000528829
0.0022854
0.000536739
0.000893115
-0.00142884
0.00193887
0.0020913
-0.000317111
0.00234697
0.000413119
0.000998849
0.00294883
-0.00100667
-0.000594741
0.00372339
0.0011203
0.00444886
0.00394036
-0.00488568
0.00022016
0.00249559
-0.000537307
4.20384e-05
0.00244755
0.00306921
0.00216566
-0.00168729
-0.00105114
0.00500682
0.00234744
-0.00114792
-0.00313682
0.00565807
0.00198149
-0.000880878
0.00166501
0.000614591
0.000766427
0.00255447
-0.00349622
0.00184115
0.00130771
-0.00014001
-0.000276589
0.00146337
0.000665043
-0.000543805
-4.66968e-05
0.00228445
-0.000714438
0.00163741
0.000415769
0.000298661
0.00116084
-0.000962696
0.00114088
0.00147811
0.000781574
-0.000203787
0.00038905
0.000163052
0.00063852
-6.36969e-06
-0.00136201
0.00111917
8.62953e-06
-2.0764e-05
0.000402486
0.000275237
-0.000682843
1.33725e-05
0.00140247
-0.000961506
-5.62467e-05
0.00155497
-0.000322519
0.000158258
0.00148568
5.88687e-06
5.65618e-05
1.29062e-05
-0.000267778
-0.000213087
-0.000786869
-0.000718786
-0.00088621
-0.000663978
0.000319551
-0.000274369
-0.000301992
-0.000629035
0.000135643
-0.00059692
-7.95454e-05
-0.000174365
6.74245e-05
-0.00031881
-0.000985803
0.000120965
0.00110422
-0.00181163
0.000806408
-0.00219793
-0.00104635
0.000446429
0.000425608
-0.00150784
-0.00129004
0.000174408
-0.00135894
0.00109503
5.17842e-06
-0.00153691
-0.000791363
0.000964203
-0.00155349
0.000978725
-0.0022105
1.77469e-05
0.00180058
-0.00167465
-0.000570586
2.09734e-05
1.41366e-05
-7.36945e-05
-0.000280199
-0.000531129
0.000508329
4.42987e-05
-9.42145e-05
-0.00220488
0.00185176
0.00128553
-9.8922e-05
0.00111235
-0.00212673
-0.000533319
0.00237824
0.000183073
-0.0043552
0.000715078
-0.00409218
0.0021989
-0.000113779
-0.00282468
0.00193891
-0.0010406
-0.0020324
-0.000990157
0.000964587
-0.000765696
-6.69485e-05
0.00143634
-0.00126776
0.000906536
-0.000697771
-0.00150859
-0.000196501
0.00124559
-0.000808226
-0.00291648
-0.000528528
-0.00185074
-0.00104062
0.000886426
-0.000911982
-0.00114915
-0.000850524
-0.000856229
-0.00186257
0.00149657
0.00115467
0.00129044
0.000109392
-0.00156611
0.000426147
0.00244056
-1.02883e-05
-0.000338996
0.000354148
0.000265848
-0.000426376
0.000198704
0.000460908
0.000720725
0.000170637
-0.000443943
0.00107891
0.000251839
-0.000355707
-0.000578774
0.000444936
4.73407e-05
-0.000657216
0.000161378
-0.000571455
9.87496e-05
-8.40334e-06
0.000498194
-0.000731199
-0.0010331
0.000695145
0.000115119
-9.12755e-05
0.0013109
-0.00012082
-0.00105493
-1.87469e-05
0.00114291
-0.000126808
0.00074053
0.00043504
8.09886e-05
0.000805765
-0.000178038
-0.000505927
0.000170475
0.00112637
0.00085211
-0.000129071
0.00082451
0.00113127
-0.00167964
-0.000287098
-0.000922002
0.00218967
0.000572524
-0.00192595
-0.000292136
1.24977e-06
0.000411172
-0.00129114
9.61108e-05
-6.94455e-05
-0.000778313
-1.97465e-05
9.30761e-05
-0.00102967
-0.000130876
-0.000202785
-1.54844e-05
0.000185293
-0.00091604
-0.00116357
9.00451e-05
-0.00115931
-8.24328e-05
7.6349e-05
-0.000251863
-0.000711607
-0.000121912
-7.01133e-05
-0.000840911
5.68644e-05
-0.000578504
7.6994e-05
-4.78847e-05
0.000575468
-0.00068604
-0.00119571
0.000728357
7.60685e-05
-0.000127369
0.00118652
0.000231236
-0.00114848
-0.000193979
0.00111575
1.66853e-05
-6.53938e-05
0.000505728
-0.000750618
0.00069245
0.000670422
0.00072732
-0.000205995
-4.03048e-05
2.85555e-05
-3.79187e-05
0.000753567
-0.000147454
-0.000671256
2.58989e-05
0.000644945
5.66983e-05
3.65398e-05
0.000174897
-2.11152e-05
0.000388293
0.000103338
-0.000148082
0.000409647
0.000228658
-0.000312406
0.00118766
0.000217334
-0.00168013
0.000506649
0.00211417
0.000248254
0.000423273
0.00132284
-0.000985285
0.00103061
3.66341e-05
0.00118971
0.0006449
0.000519045
1.02415e-06
0.000555528
0.00181139
-0.0011792
0.000376267
-0.000769367
-0.000205362
0.00078516
-0.000595706
0.000391467
0.000666612
-0.000182963
-0.00267842
0.00105452
0.000599685
0.00169181
-0.00197051
9.10859e-05
0.000445693
-0.000285833
0.00163034
-0.00240797
0.000735859
0.000717249
-0.00077369
0.00102372
0.00207025
-0.000419149
0.00263664
5.33185e-05
-0.00130731
0.00227089
0.00255558
-0.00088199
-0.00136656
0.00183612
0.000602147
0.00118297
-0.000189861
-6.45536e-06
3.2765e-05
-3.11273e-05
0.00118753
2.46302e-05
-0.000557422
0.00060978
-1.38419e-05
-9.77784e-06
-0.000561165
0.00223203
-0.00162124
1.9826e-05
-0.00110498
0.00181791
0.00032069
-0.00161245
-0.000940586
0.00112758
-0.00177224
-0.000206576
0.000818799
-0.00210271
-0.000187858
-0.000299835
0.00124773
-0.00154989
-0.000169114
0.00126456
-0.000714944
-0.00034797
0.000262992
0.000350432
0.000772057
-0.000189022
3.5882e-06
-0.000725789
0.000190494
0.000696433
0.00137041
-0.000337838
-0.00144483
-0.000313824
-0.000346349
-0.000334567
0.00071894
-0.00130973
-0.000340931
-0.00027194
-0.00125915
-0.000251847
-0.000136204
0.000502255
-0.00111801
-0.000268004
-0.000375255
-0.00137404
-0.000282905
-0.00115453
-0.00159362
-0.000175419
-0.000394003
-0.00227937
-0.000583863
0.00226032
-0.000400419
-0.00222919
-2.43035e-05
6.52923e-05
0.000394792
0.00226289
0.000370155
-0.00181432
-0.000752778
-3.00881e-05
-0.000269343
0.00053886
-0.000502484
-7.96086e-05
0.00112783
0.00146625
-0.00184442
-0.000211788
-5.47915e-05
0.00120372
-8.53504e-05
0.00171373
-0.00175592
7.22606e-05
0.00169217
2.64945e-05
0.00469625
2.72267e-05
-0.000760678
-0.00178687
0.00562992
3.83061e-05
0.000815179
0.00346792
-0.000629575
0.00299512
0.000754862
0.000435494
0.000627562
0.00117959
4.6754e-05
0.00114243
0.00141779
0.000930819