/*--------------------------------*- C++ -*----------------------------------*\
  =========                 |
  \\      /  F ield         | OpenFOAM: The Open Source CFD Toolbox
   \\    /   O peration     | Website:  https://openfoam.org
    \\  /    A nd           | Version:  7
     \\/     M anipulation  |
\*---------------------------------------------------------------------------*/
FoamFile
{
    version     2.0;
    format      ascii;
    class       volVectorField;
    location    "19";
    object      U;
}
// * * * * * * * * * * * * * * * * * * * * * * * * * * * * * * * * * * * * * //

dimensions      [0 1 -1 0 0 0 0];

internalField   nonuniform List<vector> 
15191
(
(-0.0340787 0.207705 -0.0906478)
(-0.0559176 0.0659371 0.0175228)
(-0.00816733 -0.341935 0.0411119)
(-0.295566 0.0106642 -0.348524)
(-0.28493 0.310976 -0.276147)
(-0.248934 0.330067 -0.257645)
(-0.293755 -0.0988359 -0.259191)
(-0.249776 -0.0609841 -0.297373)
(-0.20194 0.139686 -0.1476)
(-0.134321 0.00940724 -0.0902662)
(-0.0948009 -0.176708 -0.121489)
(-0.0548879 -0.0830193 -0.191344)
(-0.0615416 -0.00942739 -0.215424)
(-0.00392264 0.0216814 -0.237442)
(0.0146745 0.0439752 -0.284985)
(0.0142745 0.0188972 -0.229506)
(0.0157526 0.004881 -0.224002)
(0.0153862 0.00958687 -0.228289)
(0.0112019 0.010566 -0.237953)
(0.00937701 0.0129678 -0.237444)
(0.0069496 0.0174484 -0.228002)
(0.00362596 0.0218131 -0.214997)
(0.0226812 0.0245396 -0.206681)
(0.0065134 0.00353196 -0.149518)
(0.00376543 -0.00336394 -0.147653)
(0.01445 -0.0196961 -0.227351)
(0.0164597 0.000571822 -0.226278)
(0.01697 -0.000934603 -0.226852)
(0.00719788 0.000947442 -0.216815)
(0.00953479 0.000620216 -0.211566)
(9.04631e-05 7.10739e-05 -0.194744)
(-8.04726e-06 -0.00125718 -0.198523)
(0.000161561 0.000697495 -0.198018)
(-0.000260816 -0.000885182 -0.19846)
(-0.0010932 0.000965124 -0.197488)
(-0.0030793 -3.06475e-05 -0.198701)
(-0.00489126 -7.6994e-05 -0.198531)
(-0.00133319 -0.0019196 -0.191424)
(-0.00063857 0.000465769 -0.19431)
(0.00821915 0.0007648 -0.211692)
(0.00701586 0.00360071 -0.21342)
(0.00614037 0.00412462 -0.201101)
(0.00691528 0.00296963 -0.198226)
(0.000271629 0.00135584 -0.196375)
(-5.44103e-05 -0.000270156 -0.197618)
(-0.00127839 0.000462801 -0.198637)
(1.82488e-05 0.00052028 -0.197918)
(0.0011199 0.000833387 -0.198167)
(0.000600176 -0.000104557 -0.199142)
(-0.0003938 0.000854739 -0.199926)
(0.00116261 0.0022466 -0.194454)
(0.00342403 0.00552121 -0.198018)
(0.00675496 0.00786371 -0.216103)
(0.00937718 0.00623956 -0.218733)
(0.00504544 0.00568508 -0.231824)
(0.00519685 0.0106591 -0.219176)
(0.00187763 0.00715955 -0.203943)
(0.00405037 0.00412273 -0.198456)
(-3.65984e-05 0.00126791 -0.200081)
(0.000353578 -0.000570266 -0.200957)
(-0.000604872 0.000161268 -0.201437)
(-0.00115488 0.000989181 -0.20063)
(-0.00184699 -0.00109616 -0.19951)
(-0.000965417 -0.00526889 -0.203622)
(-0.00070677 -0.00452934 -0.205612)
(-0.00418825 -0.00195655 -0.194833)
(0.000669244 0.00740274 -0.202033)
(-0.00133533 0.00883582 -0.205873)
(0.00115946 0.00772501 -0.205939)
(0.000517453 0.00697475 -0.206457)
(-0.000226991 0.0254335 -0.21472)
(0.000345646 0.0263136 -0.214203)
(-0.0229272 0.0249462 -0.209269)
(-0.0165503 0.0287361 -0.104221)
(-0.0155628 -0.0288991 -0.119461)
(0.0236834 -0.0252965 -0.206215)
(0.00934906 -0.0127804 -0.237095)
(0.0109466 -0.00972376 -0.237391)
(0.0150872 -0.00911461 -0.228135)
(0.0155321 -0.00448714 -0.223616)
(0.00712166 -0.00345747 -0.213152)
(0.00807061 -0.00070516 -0.211543)
(-0.000583091 -0.000385917 -0.194373)
(-0.00016422 -0.000292999 -0.198079)
(-0.000370404 0.0010267 -0.198419)
(-0.000665096 -0.000710399 -0.198687)
(-0.000457198 0.000544537 -0.198411)
(-0.00464835 7.40755e-05 -0.202997)
(-0.00784995 -0.000838798 -0.205575)
(-0.0140377 0.00304361 -0.207624)
(-0.0239135 -0.0188736 -0.217026)
(-0.0312604 -0.0104057 -0.209233)
(-0.0161036 -0.00469159 -0.220061)
(-0.0131009 -0.00137423 -0.244688)
(-0.0156597 0.0027966 -0.23633)
(-0.0125258 -0.00131487 -0.234323)
(-0.0140816 -0.00330265 -0.225404)
(-0.0179464 -0.000541203 -0.217446)
(-0.0152321 -0.0112937 -0.223073)
(-0.0113099 -0.00909304 -0.246362)
(-0.0136946 -0.00152946 -0.232897)
(-0.0133998 -0.00362121 -0.218143)
(-0.0104665 -0.00993411 -0.244365)
(-0.0121804 -0.00448756 -0.23124)
(-0.017114 -0.00260063 -0.220976)
(-0.0130759 -0.00730578 -0.22578)
(-0.00785688 -0.00862719 -0.218705)
(-0.00834984 -0.0125836 -0.242984)
(-0.0101859 -0.00873273 -0.230042)
(-0.0204801 -0.00735824 -0.220927)
(-0.00842557 -0.0192717 -0.222698)
(-0.00394023 -0.0130848 -0.236929)
(-0.00361954 -0.0060159 -0.25335)
(-0.0153085 -0.0138129 -0.22985)
(-0.0236009 -0.0178082 -0.210108)
(-0.0118271 -0.0310544 -0.218366)
(-0.0149136 -0.0214914 -0.219066)
(-0.0049329 -0.0122777 -0.241152)
(-0.0097882 -0.0117576 -0.243461)
(-0.0088658 -0.0136348 -0.255519)
(-0.00431031 -0.0159632 -0.230259)
(-0.00205524 -0.0154408 -0.244038)
(-0.0091229 -0.013285 -0.258115)
(-0.0118199 -0.0177218 -0.235984)
(-0.00196221 -0.0200231 -0.232286)
(-0.00354774 -0.0150538 -0.238657)
(0.000695369 -0.015247 -0.254155)
(-0.00222729 -0.015346 -0.256333)
(-0.00697594 -0.0202967 -0.235979)
(-0.00096365 -0.0246309 -0.224279)
(0.00604646 -0.0196632 -0.235358)
(0.00106594 -0.0155309 -0.25682)
(-0.00206491 -0.0163178 -0.250647)
(0.000959048 -0.0141084 -0.245808)
(0.00404244 -0.0162846 -0.238986)
(0.00141717 -0.0202423 -0.230719)
(0.0123046 -0.0174307 -0.235874)
(0.00953854 -0.0134537 -0.257689)
(0.0027964 -0.0155023 -0.244005)
(0.00495224 -0.0154432 -0.229009)
(0.0103837 -0.0121871 -0.253828)
(0.00525832 -0.0135056 -0.240264)
(0.00316285 -0.0185852 -0.228968)
(0.00774834 -0.0138765 -0.232062)
(0.00944236 -0.00860299 -0.224366)
(0.0124237 -0.00933995 -0.245899)
(0.00874617 -0.0112098 -0.233072)
(0.00721906 -0.0204533 -0.219754)
(0.0201761 -0.00782935 -0.219737)
(0.0102398 -0.00869209 -0.228936)
(0.00851363 -0.013205 -0.242513)
(0.00795689 -0.00797492 -0.216791)
(0.0138735 -0.00865584 -0.227595)
(0.0172958 -0.00142859 -0.21619)
(0.0124215 -0.00515824 -0.232824)
(0.0104124 -0.0108516 -0.238847)
(0.0146228 -0.00725726 -0.216199)
(0.0122093 -0.00554822 -0.22012)
(0.00851409 -0.00376596 -0.232954)
(0.0105387 -0.000391016 -0.230487)
(0.0094207 -0.00237607 -0.235443)
(0.0129494 -0.00616153 -0.219346)
(0.0121089 0.00240977 -0.227127)
(0.0145858 0.00234612 -0.232849)
(0.0132136 -0.000207739 -0.24031)
(0.0172075 -0.00667539 -0.219933)
(0.0215891 0.00105017 -0.208858)
(0.017232 0.00789767 -0.220923)
(0.0120694 0.0020128 -0.239794)
(0.0126123 -0.00052252 -0.237009)
(0.0120427 0.00187733 -0.224339)
(0.0153532 0.00177292 -0.215289)
(0.0133609 0.0136033 -0.211805)
(-0.0123596 0.0172296 -0.234066)
(-0.00972301 0.0128378 -0.256092)
(-0.00297325 0.0154846 -0.243682)
(-0.00471166 0.0151108 -0.227627)
(-0.0105201 0.0121944 -0.254432)
(-0.00576824 0.0134698 -0.23959)
(-0.0038226 0.0184512 -0.230267)
(-0.00756756 0.0140722 -0.232453)
(-0.0094323 0.00893165 -0.225285)
(-0.0121669 0.00938322 -0.247183)
(-0.0088774 0.0111127 -0.233456)
(-0.00711766 0.0208987 -0.222185)
(-0.0188387 0.00879308 -0.222669)
(-0.0125396 0.00429955 -0.235309)
(-0.0051552 0.00398978 -0.251185)
(-0.0124783 0.0156232 -0.226598)
(-0.0165924 0.023369 -0.204898)
(-0.0299851 0.0116494 -0.212877)
(-0.0193932 0.0146067 -0.210136)
(-0.010252 0.00503015 -0.232696)
(-0.0105118 0.00942716 -0.233553)
(-0.0118097 0.00884726 -0.245651)
(-0.0138857 0.00268376 -0.218345)
(-0.0135474 0.000918217 -0.233423)
(-0.0110495 0.0082629 -0.245085)
(-0.0153818 0.0117393 -0.224927)
(-0.0172747 0.000474064 -0.216523)
(-0.0128462 0.00254618 -0.229778)
(-0.0155148 -0.0012309 -0.238118)
(-0.0138099 0.00297491 -0.246123)
(-0.0165759 0.00605949 -0.22022)
(-0.023541 0.000356416 -0.215285)
(-0.0337377 0.000267598 -0.208688)
(-0.031965 0.0121612 -0.209578)
(-0.0241707 0.0219513 -0.217528)
(-0.0141123 -0.00270083 -0.207984)
(-0.0237755 0.00106391 -0.205242)
(-0.0267557 0.00477843 -0.20406)
(-0.0247718 0.0101638 -0.204261)
(-0.0340968 0.0193147 -0.210831)
(-0.0208214 0.0258028 -0.216943)
(-0.0119786 0.00159363 -0.208908)
(-0.0273686 0.00592748 -0.208262)
(-0.0302848 0.0174023 -0.20588)
(-0.0187556 0.0299713 -0.215281)
(-0.00931078 0.00123221 -0.208383)
(-0.0196674 0.0117412 -0.206085)
(-0.020443 0.0131631 -0.206235)
(-0.0333459 0.0170121 -0.208621)
(-0.0355353 0.0204882 -0.224099)
(-0.0241508 0.0265162 -0.218144)
(-0.0180897 0.0324772 -0.210567)
(-0.0117101 0.0177314 -0.212338)
(-0.0130827 0.00645061 -0.205588)
(-0.019227 0.0159346 -0.208667)
(-0.0319845 0.0234453 -0.206752)
(-0.0219034 0.0349027 -0.206982)
(-0.0144394 0.0211265 -0.209076)
(-0.00716856 0.00977266 -0.210606)
(-0.0295519 0.0189828 -0.216399)
(-0.0142772 0.0248543 -0.210295)
(-0.00744166 0.014275 -0.213997)
(-0.0249665 0.0177891 -0.216377)
(-0.0193745 0.031211 -0.212315)
(-0.0104481 0.0245335 -0.213547)
(-0.00358789 0.0110613 -0.215531)
(-0.0328694 0.0206173 -0.223706)
(-0.0186906 0.0319129 -0.214579)
(-0.00749442 0.0281887 -0.216584)
(-0.00228762 0.01302 -0.217259)
(-0.0287218 0.0221912 -0.227157)
(-0.0206844 0.0341177 -0.220895)
(-0.00222886 0.00969551 -0.215284)
(-0.00187212 0.00716375 -0.21075)
(-0.00337929 0.00723579 -0.212016)
(-0.00450469 0.00767623 -0.215004)
(-0.00252103 0.00621167 -0.20752)
(-0.00468121 0.00748719 -0.208736)
(-0.00649173 0.00794637 -0.210952)
(-0.00338725 0.00578315 -0.205911)
(-0.00634383 0.00820473 -0.207231)
(-0.00330446 0.00403741 -0.205109)
(-0.00704582 0.00672193 -0.205524)
(-0.00658299 0.00709702 -0.209359)
(-0.00464935 0.00673452 -0.205494)
(-0.00363059 0.00347913 -0.203156)
(-0.00160796 0.00273536 -0.203067)
(-0.00134236 0.00147365 -0.202577)
(-0.00248394 0.00218669 -0.203985)
(0.000201978 0.00101759 -0.200928)
(0.000330906 -0.000757252 -0.199287)
(-0.00011048 -0.00100702 -0.199525)
(-0.000516644 -0.000598936 -0.200102)
(0.000667998 0.000331581 -0.199265)
(0.000861555 -0.000542515 -0.19827)
(-5.68826e-05 -0.000425501 -0.198136)
(-0.00121487 -0.00044073 -0.199016)
(4.969e-05 0.000334284 -0.198103)
(0.000454339 0.000499024 -0.196937)
(-0.00187 0.00123338 -0.196217)
(-0.00481886 6.22686e-05 -0.198871)
(-0.0030096 2.97958e-05 -0.198931)
(-0.00103303 -0.00101652 -0.197652)
(-0.000315349 0.000846202 -0.19863)
(-0.00678869 0.000695138 -0.203432)
(-0.00607377 0.00105923 -0.207831)
(-0.0085463 0.000975385 -0.206936)
(-0.0064702 0.00134862 -0.203574)
(-0.00667876 0.00264162 -0.204905)
(-0.00673905 0.00371935 -0.207263)
(-0.00537413 0.00225601 -0.202583)
(-0.00677914 0.00359003 -0.203883)
(-0.00596804 0.00555508 -0.205675)
(-0.0123918 0.00864574 -0.209804)
(-0.00735662 0.00460518 -0.203571)
(-0.00331992 0.00341037 -0.203409)
(-0.00259509 0.00160174 -0.201852)
(-0.00138448 0.00123745 -0.201009)
(-0.00163207 0.00237005 -0.201647)
(-0.00486348 0.00272231 -0.201441)
(-0.00373321 0.0011156 -0.201242)
(-0.00234199 0.00147532 -0.200381)
(-0.0008433 0.000584222 -0.194743)
(1.05666e-05 -0.00016991 -0.18467)
(-0.00559737 0.00442831 -0.187321)
(-0.00491244 0.00301368 -0.193613)
(-0.00770993 0.00519746 -0.194248)
(-0.0115329 0.00705901 -0.193785)
(-0.0140146 0.0154279 -0.195267)
(-0.0204163 0.0194382 -0.191859)
(-0.0206953 0.0213098 -0.189543)
(-0.0312587 0.0203903 -0.193393)
(-0.0200742 0.00783648 -0.191033)
(-0.0230581 0.0142189 -0.176519)
(-0.0206085 0.0175006 -0.157323)
(-0.0155591 0.0183938 -0.159466)
(-0.0179545 0.0183583 -0.145744)
(-0.0147459 0.0171009 -0.13108)
(-0.0115947 0.0166034 -0.112548)
(-0.0100192 0.0157146 -0.108616)
(-0.0115599 0.0119411 -0.094865)
(-0.00799172 0.0140411 -0.0738966)
(0.00352119 0.0252589 -0.0656831)
(-0.00789782 0.0140337 -0.0385965)
(0.00584832 -0.010677 -0.0488431)
(-0.0156756 -0.00694158 -0.0317869)
(-0.0316185 0.0121887 -0.0332449)
(-0.0136101 0.0573075 -0.102636)
(-0.00245978 0.0780878 -0.104191)
(0.0139804 0.0762742 -0.148875)
(0.0181906 0.0445408 -0.07881)
(-0.0239961 0.0779948 -0.0143089)
(-0.088835 0.0673682 -0.13501)
(0.0322977 0.00723014 -0.050493)
(0.120029 -0.0297307 -0.142606)
(-0.0509137 -0.00389338 -0.0380588)
(-0.0787766 0.0105319 -0.0462127)
(-0.124003 0.00426019 -0.243838)
(-0.0573041 0.128486 -0.120179)
(0.0556286 -0.0649344 -0.28657)
(-0.0402599 -0.0742629 -0.246645)
(-0.00846744 -0.04864 -0.102031)
(-0.0525775 -0.0569241 -0.117712)
(-0.0292031 -0.0325746 -0.0836416)
(-0.0039508 -0.00221818 -0.0617098)
(-0.0361957 -0.0274985 -0.00403641)
(-0.0302989 0.0346024 -0.0751938)
(-0.0135398 0.0325005 -0.12036)
(-0.020488 0.0338372 -0.133241)
(-0.0119659 0.0350583 -0.086241)
(-0.015333 0.0163815 -0.0779135)
(-0.0128019 0.00996124 -0.108726)
(-0.0221635 0.0111118 -0.0924796)
(-0.0326949 -0.0030816 -0.100353)
(-0.027317 0.0162381 -0.0868984)
(-0.0334263 -0.0411348 -0.069435)
(-0.0377105 -0.0724449 -0.0661726)
(-0.0564822 -0.0322289 -0.0677687)
(-0.0720707 -0.0507504 -0.0729014)
(-0.0796912 -0.0812649 -0.0812464)
(-0.114363 0.0651769 -0.023826)
(-0.167461 -0.0818307 -0.167878)
(-0.0825293 -0.105774 -0.171812)
(-0.0864688 -0.113355 -0.0874293)
(-0.0748322 -0.0630904 -0.134152)
(-0.0650851 -0.0769192 -0.189884)
(-0.0285342 -0.0594554 -0.117602)
(-0.0437787 -0.0245333 -0.0894403)
(-0.0619723 -0.0740969 -0.126783)
(-0.0415355 -0.0688953 -0.0851752)
(-0.0469254 -0.0348063 -0.0696361)
(-0.0732669 -0.0829535 -0.0550231)
(-0.151218 -0.0756282 -0.131526)
(-0.14171 -0.0784505 -0.102319)
(-0.0174091 -0.0215748 0.13725)
(-0.0794756 -0.115102 -0.0661316)
(-0.0653926 0.0673663 -0.0459263)
(-0.109221 -0.0585464 -0.146627)
(-0.0493646 -0.034324 -0.316827)
(-0.119092 0.0759681 -0.473464)
(-0.145547 0.109482 -0.174443)
(-0.115262 0.0141179 -0.0717764)
(-0.079212 0.0235269 -0.333209)
(0.0518014 0.00518031 -0.0800245)
(0.0134515 -0.0456643 -0.202309)
(0.00114196 -0.172383 0.0704379)
(-0.113616 -0.153196 0.0620297)
(-0.138699 -0.0651514 -0.130732)
(-0.0600898 0.00584681 -0.160484)
(-0.0724748 -0.064208 -0.0399447)
(0.0671934 -0.101741 0.0495094)
(-0.096518 0.05086 0.033396)
(-0.154908 -0.0746959 -0.322274)
(-0.156906 -0.0812967 -0.338098)
(-0.114556 -0.0775041 -0.198821)
(-0.0493178 0.0311787 -0.134143)
(-0.113669 0.0336037 -0.185355)
(-0.0356314 0.00550311 -0.0664445)
(-0.105919 0.000944052 -0.0551595)
(-0.0423669 0.0601614 0.0467984)
(-0.000480386 0.00732697 0.0681945)
(-0.0825237 0.0321722 -0.0564729)
(-0.112228 -0.0194419 -0.0836211)
(-0.126598 -0.0349468 -0.124585)
(-0.10211 -0.00521133 -0.25801)
(-0.160058 -0.016794 -0.386678)
(-0.139658 -0.0462172 -0.192477)
(-0.103645 -0.0537068 -0.110977)
(-0.0608354 -0.00715876 -0.0948517)
(-0.0220682 -0.00110667 -0.11092)
(-0.0054709 -0.0426862 -0.0586869)
(0.0137901 0.0571985 -0.0227081)
(-0.0089492 0.0365054 -0.10126)
(-0.0109794 0.0702289 -0.131028)
(-0.0177393 0.0656116 -0.126109)
(-0.0375709 0.030436 -0.0767584)
(-0.0257697 0.0036954 -0.0469586)
(-0.0151116 0.0225822 -0.0997369)
(-0.0013724 0.0455094 -0.0899935)
(-0.0165202 0.01883 -0.00753919)
(-0.0492483 -0.0127662 -0.0652425)
(-0.0336323 0.0181186 -0.0756424)
(-0.0147484 0.0156711 -0.0369559)
(0.00570947 -0.014959 -0.058504)
(-0.000525269 0.00330797 -0.0671451)
(-0.010171 0.000376833 -0.0946523)
(-0.0221122 -0.0068596 -0.0755043)
(-0.0182825 0.00581462 -0.0631705)
(-0.0282777 -0.00270885 -0.0570184)
(-0.0156008 0.00255584 -0.0301206)
(-0.0151654 0.00801139 -0.062312)
(-0.0133274 0.00936627 -0.074912)
(-0.013841 0.00567272 -0.0904553)
(-0.0209569 -0.00152682 -0.080949)
(-0.0221695 -0.00124517 -0.0687108)
(-0.022315 -0.00844409 -0.0760158)
(-0.0269732 -0.00636681 -0.0748562)
(-0.0226106 -0.00594407 -0.0898297)
(-0.0224213 -0.00648688 -0.0840443)
(-0.0201391 -0.00499177 -0.0858123)
(-0.0213806 0.000539263 -0.0858405)
(-0.0197986 0.00423807 -0.0960423)
(-0.0178677 0.00561444 -0.0919543)
(-0.0155271 0.0109055 -0.0960641)
(-0.0155513 0.0123356 -0.113534)
(-0.0145603 0.0137386 -0.113404)
(-0.015889 0.0143152 -0.1306)
(-0.0183544 0.0172787 -0.146)
(-0.0184033 0.0134761 -0.160874)
(-0.0195617 0.0142031 -0.141677)
(-0.0177651 0.0131472 -0.126153)
(-0.0175069 0.0119291 -0.120587)
(-0.0182738 0.00925826 -0.108994)
(-0.0204299 0.0034997 -0.10588)
(-0.0203513 0.00834463 -0.120156)
(-0.0189809 0.0126801 -0.131242)
(-0.0207669 0.016074 -0.13281)
(-0.02303 0.0160578 -0.152966)
(-0.0174975 0.0201421 -0.154847)
(-0.0211242 0.0104852 -0.174534)
(-0.0157565 0.0185439 -0.172083)
(-0.0188068 0.0170428 -0.188908)
(-0.0192306 0.0114908 -0.202403)
(-0.0138451 0.00621966 -0.224111)
(-0.00844839 0.00473547 -0.236233)
(-0.0227025 0.00394716 -0.206657)
(-0.0206677 0.0128084 -0.190498)
(-0.0112147 0.0207207 -0.165247)
(-0.0151213 0.0233833 -0.192037)
(-0.028353 0.010382 -0.198551)
(-0.0250816 0.00898148 -0.167804)
(-0.022952 0.0101111 -0.178385)
(-0.0235158 0.00943452 -0.177313)
(-0.0269226 0.00979709 -0.16443)
(-0.0240605 0.00905047 -0.143198)
(-0.0218836 0.00843763 -0.130834)
(-0.0200899 0.00525544 -0.117575)
(-0.0193075 0.00352095 -0.116634)
(-0.0212349 -0.000664265 -0.110139)
(-0.0199045 -0.0059764 -0.0943656)
(-0.0199909 -0.00139376 -0.0941083)
(-0.0152727 0.00295131 -0.0959003)
(-0.0123237 0.00724265 -0.0955677)
(-0.00714057 -0.00111748 -0.0814998)
(-0.0145406 -0.0115007 -0.0485496)
(-0.0143657 0.0140556 -0.0607597)
(-0.00608646 0.0161369 -0.0250086)
(-0.00850806 -0.0126631 -0.0323234)
(-0.0327551 0.0136163 -0.0212962)
(-0.0570672 -0.00665041 -0.0933936)
(-0.0826188 0.00239545 -0.138808)
(-0.13031 0.0078278 -0.283284)
(-0.115603 0.00473183 -0.315552)
(-0.13631 -0.138139 -0.232028)
(-0.229896 -0.157996 -0.369379)
(-0.17233 -0.221944 -0.292593)
(-0.190859 -0.177042 -0.272152)
(-0.00631312 -0.063221 -0.274239)
(-0.0533649 -0.165297 -0.0689447)
(-0.115344 -0.119198 -0.0979852)
(-0.12251 -0.169069 -0.124018)
(-0.0640779 -0.0702377 -0.0668536)
(-0.0358856 -0.0478107 -0.105661)
(-0.0299431 -0.0244839 -0.0945518)
(-0.0309889 -0.00764464 -0.106049)
(-0.042536 0.0145549 -0.0770446)
(-0.0516482 -0.018575 -0.112721)
(-0.0197295 -0.0188171 -0.0131043)
(0.0291266 -0.0798003 -0.0333855)
(-0.0185838 0.0200986 0.0179874)
(-0.0448814 -0.0631894 -0.107492)
(-0.0318025 -0.0168545 -0.0868907)
(-0.0311469 -0.0191436 -0.110538)
(-0.0355769 0.00140982 -0.101712)
(-0.0340878 -0.0140236 -0.0716057)
(-0.0254338 -0.0678074 -0.103686)
(-0.0211604 -0.0222688 -0.131012)
(-0.00926719 -0.00850463 -0.109935)
(-0.0209279 -0.0201578 -0.108734)
(-0.0123448 0.0145681 -0.107793)
(-0.019477 -0.00504584 -0.100238)
(-0.0317134 -0.0184467 -0.0939482)
(-0.0377201 -0.0146255 -0.0990761)
(-0.0398886 -0.0720732 -0.0631224)
(-0.0377366 -0.0683873 -0.115594)
(-0.0326647 -0.0744247 -0.111392)
(-0.0849891 -0.115423 -0.0903976)
(-0.105454 -0.1902 -0.133511)
(-0.125007 -0.196086 -0.168388)
(-0.0702396 -0.155024 -0.0428214)
(-0.127117 -0.212013 -0.136202)
(-0.121623 -0.173319 -0.136363)
(-0.119708 -0.252721 -0.104808)
(-0.0795599 -0.173112 -0.262158)
(-0.174301 -0.186016 -0.435585)
(-0.173174 -0.184456 -0.244748)
(-0.118152 -0.204647 -0.234204)
(-0.0923217 -0.263757 0.119804)
(-0.0965078 -0.225762 0.139093)
(-0.102699 -0.169465 0.0336425)
(-0.0518392 -0.211699 0.0699753)
(-0.10815 -0.211494 0.0850501)
(-0.167271 -0.250101 -0.115929)
(-0.131848 -0.174808 0.0426261)
(-0.0889379 -0.143673 -0.0627285)
(-0.157983 -0.0678732 -0.112916)
(0.0149159 -0.123148 -0.0772108)
(-0.135776 -0.0766841 -0.00683786)
(-0.0316779 -0.169548 0.160204)
(-0.138943 -0.244166 -0.17586)
(-0.135395 -0.235687 -0.379098)
(-0.20206 -0.146138 -0.340431)
(-0.0794792 -0.0444917 -0.180106)
(-0.0624458 0.072482 -0.19573)
(-0.0740556 -0.0135542 -0.182223)
(-0.0639074 -0.01822 -0.0638875)
(-0.00204014 0.0217384 0.0792814)
(-0.0510002 0.0612529 0.0486377)
(0.0769557 -0.0433808 0.257888)
(0.02643 -0.0266673 0.298207)
(-0.0425333 -0.0739656 0.306705)
(-0.11345 -0.071792 0.356972)
(-0.0200702 -0.222202 0.422153)
(-0.0733312 -0.263121 0.262709)
(-0.0268667 -0.244676 0.613593)
(-0.0484063 -0.167521 0.445528)
(0.0887839 -0.147355 0.32882)
(0.0160016 -0.119642 0.40059)
(-0.130618 -0.159342 0.0831615)
(-0.102939 -0.202823 0.0585776)
(-0.112383 -0.213272 -0.137801)
(-0.0629366 -0.136486 -0.109)
(-0.00764196 -0.0803891 -0.118082)
(-0.0673069 -0.185053 -0.241416)
(-0.100171 -0.210616 -0.317252)
(-0.0487277 -0.160872 -0.301222)
(-0.0648728 -0.252564 -0.16881)
(-0.0514413 -0.22676 -0.14719)
(-0.0435737 -0.12671 -0.0958512)
(-0.0435987 -0.122913 -0.108959)
(-0.0306545 -0.0452842 -0.0971061)
(-0.0179802 -0.0236572 -0.0983913)
(-0.020331 -0.0327423 -0.101273)
(-0.0363207 -0.0333372 -0.0972705)
(-0.0348444 -0.0234853 -0.141503)
(-0.0421841 -0.0277405 -0.126188)
(-0.0301513 -0.0517642 -0.0631223)
(-0.0306572 -0.0373947 -0.10999)
(-0.0258939 -0.0272039 -0.0838728)
(0.0111835 -0.0146068 -0.0972244)
(-0.00372167 -0.0310452 -0.0317527)
(-0.00383996 -0.02499 0.0584541)
(-0.0432249 -0.00219977 -0.0375747)
(-0.0470163 0.00167413 -0.118153)
(-0.0213471 0.00758445 -0.129707)
(0.0026601 0.0108304 -0.134486)
(0.00558557 -0.0409178 -0.185955)
(-0.0155509 -0.0803631 -0.180193)
(-0.0237177 -0.101597 -0.211314)
(0.0686674 -0.00134548 -0.0845328)
(0.00593855 -0.0942639 -0.141304)
(-0.0358179 -0.0546229 -0.0857919)
(-0.0447105 -0.115593 -0.083098)
(-0.00757421 -0.169308 -0.0301916)
(-0.0360996 -0.189129 -0.0744364)
(-0.0335557 -0.268827 -0.00186252)
(-0.0563709 -0.262853 -0.0609189)
(-0.135977 -0.211835 -0.22653)
(-0.117596 -0.195869 -0.30991)
(-0.134461 -0.116659 -0.12553)
(-0.0376556 -0.0810754 -0.0177436)
(-0.0867512 -0.16121 -0.0505486)
(0.0167886 -0.164439 0.121653)
(-0.107975 -0.188418 0.153918)
(-0.102777 -0.171774 0.255627)
(-0.0295501 -0.274904 0.140525)
(0.00674031 -0.251877 0.659985)
(0.106404 -0.254169 0.667172)
(-0.0188768 -0.0825387 0.46024)
(0.0222829 -0.133189 0.345182)
(0.0450302 -0.138275 0.257363)
(0.0985556 -0.260013 0.412873)
(-0.0520663 -0.285482 -0.157718)
(0.0160519 -0.300599 0.0144496)
(-0.0752502 -0.240824 -0.34106)
(-0.100283 -0.263228 -0.321617)
(-0.190801 -0.25349 -0.424923)
(-0.159345 -0.220933 -0.440482)
(-0.121871 -0.158861 -0.519914)
(-0.0596337 -0.120435 -0.379643)
(0.0512992 -0.157303 -0.167408)
(-0.0148479 -0.171726 0.0415694)
(-0.00239845 -0.0973403 0.125618)
(-0.037579 -0.267176 0.0271001)
(-0.00133945 -0.180816 0.00683429)
(0.0430465 -0.120604 -0.00634362)
(-0.00797067 -0.104866 -0.0464087)
(-0.04077 -0.0581718 -0.16867)
(0.02405 -0.00947163 -0.0925018)
(-0.0519968 0.0203359 -0.0147391)
(-0.0510148 -0.0225236 -0.0191963)
(-0.0139347 0.0871112 -0.18054)
(0.00620041 0.0435732 -0.182094)
(0.00197495 -0.00946427 -0.133451)
(-0.0216707 -0.00618921 -0.130585)
(-0.0473783 0.00108587 -0.119256)
(-0.0420253 0.0302683 -0.125724)
(-0.0298018 0.0542185 -0.0647412)
(-0.043774 0.00571418 -0.0371462)
(-0.00484724 0.0266515 0.060196)
(0.0699795 -0.00215806 -0.082023)
(-0.0245852 0.103616 -0.215729)
(0.00633084 0.0968217 -0.141911)
(-0.0405356 0.0620636 -0.17015)
(0.0224732 0.010512 -0.0938992)
(0.0504546 0.0201066 -0.100768)
(0.051527 -0.019543 -0.10277)
(0.0601573 -0.0722532 -0.145321)
(-0.0374123 -0.115973 -0.209956)
(-0.0136572 -0.214226 -0.147443)
(-0.0539187 -0.0636044 0.0736177)
(0.0309064 -0.215062 0.0658981)
(0.0425501 -0.207254 -0.035404)
(0.0229738 -0.176506 -0.0403764)
(-0.0190472 -0.144837 -0.329917)
(-0.0811849 -0.162121 -0.368916)
(-0.13333 -0.198294 -0.390335)
(-0.129457 -0.199617 -0.294413)
(-0.116171 -0.242151 -0.393096)
(-0.115422 -0.105801 -0.0376287)
(-0.0385 -0.0661346 -0.0625758)
(-0.106286 -0.165854 -0.351412)
(-0.082433 -0.102942 -0.141525)
(-0.0959873 -0.228983 -0.0418479)
(-0.00215119 -0.210406 0.0952808)
(0.0187245 -0.141695 0.126393)
(-0.0330176 -0.207417 0.0487255)
(0.0297936 -0.0980665 0.107467)
(-0.0244809 -0.0470337 0.0813003)
(0.0320202 -0.0371092 0.112476)
(0.0127603 -0.056815 -0.00315841)
(-0.0169851 -0.0328075 -0.0797376)
(-0.0178668 -0.00751311 -0.0570716)
(-0.0158473 -0.00152283 -0.0925744)
(-0.00924483 0.00909984 -0.097505)
(-0.0195388 -0.0148109 -0.0760522)
(-0.0174197 -0.00101756 -0.104908)
(-0.0232565 -0.0383197 -0.102817)
(-0.0021456 -0.0466391 -0.0990579)
(0.00571465 -0.125897 0.00214261)
(-0.0116598 -0.105858 -0.0522274)
(0.0110649 -0.117123 -0.0571696)
(-0.0157181 -0.0485063 -0.0879166)
(-0.0281181 -0.0202152 -0.133884)
(-0.0321546 0.000356519 -0.116525)
(-0.0097221 0.0154373 -0.0996954)
(-0.0134693 0.00974609 -0.110245)
(-0.0114845 0.0130145 -0.0954366)
(-0.011237 0.00970593 -0.100038)
(-0.0175226 0.00606525 -0.0981488)
(-0.0183741 0.00316569 -0.0977421)
(-0.0207327 0.00137742 -0.0962751)
(-0.0187055 -0.00122358 -0.0993327)
(-0.0214183 -0.000947537 -0.0931319)
(-0.0193133 0.00154973 -0.0946618)
(-0.016547 0.011183 -0.100946)
(-0.0162895 0.0159306 -0.101282)
(-0.0109078 0.0224569 -0.0942984)
(-0.0162385 0.014888 -0.0975587)
(-0.00528925 0.0132484 -0.0435219)
(-0.00326113 -0.00526614 -0.0715329)
(-0.0209732 -0.00451002 -0.0369018)
(0.0275041 -0.049506 -0.0055965)
(-0.00174467 -0.123284 0.0455207)
(0.00736089 -0.0786956 0.169012)
(-0.0571416 -0.114116 0.0801023)
(-0.0956814 -0.241355 0.0118044)
(-0.00496643 -0.120658 0.0172431)
(-0.00258095 -0.129016 0.150356)
(-0.10686 -0.0405572 -0.0489493)
(0.0133545 -0.0205375 0.00407887)
(0.00544187 -0.0344188 0.0352906)
(0.103208 -0.0878967 0.117202)
(0.057811 -0.110153 0.177008)
(-0.0572905 -0.0999084 0.174026)
(-0.0693229 -0.0794704 -0.0244179)
(-0.0275911 -0.189995 -0.112846)
(0.0162472 -0.206095 -0.0369681)
(-0.0247186 -0.205272 0.167336)
(0.0641934 -0.147283 0.0151549)
(0.116489 -0.194682 0.130356)
(0.14487 -0.0544121 -0.0615519)
(-0.103732 0.0536276 0.0482908)
(-0.102906 -0.0607201 0.0436043)
(-0.0377163 0.111392 -0.213299)
(0.0607754 0.0688533 -0.144799)
(0.0424226 0.114962 -0.0070903)
(-0.00851779 0.10606 -0.0490667)
(-0.00745741 0.169957 -0.0346789)
(-0.0425614 0.115946 -0.0820701)
(-0.0358788 0.0544912 -0.082279)
(0.00997074 0.012122 -0.0949415)
(-0.00532918 0.0332546 -0.0361035)
(-0.0264644 0.0293045 -0.0856635)
(-0.0185457 0.0252603 -0.0977864)
(-0.0208788 0.0340787 -0.0999512)
(-0.0208101 0.0221968 -0.100141)
(-0.0198849 0.00673014 -0.100454)
(-0.0323019 0.0197646 -0.094297)
(-0.0308236 0.0462559 -0.0963861)
(-0.0427671 0.121882 -0.107562)
(-0.0354455 0.188333 -0.0745206)
(-0.0332561 0.270042 -0.00314619)
(-0.00236794 0.181287 0.0041659)
(-0.0389967 0.26902 0.0340648)
(-0.0123852 0.20905 -0.142508)
(-0.0515297 0.0609677 0.0796884)
(0.116972 0.187156 0.136926)
(0.144767 0.0475728 -0.0625022)
(-0.00942691 0.0932055 -0.0119853)
(-0.011194 -0.104181 -0.00821463)
(-0.0648462 -0.139472 0.244432)
(0.0184767 -0.144433 0.456867)
(-0.0544071 -0.182677 0.243812)
(0.00606203 -0.0823786 0.357123)
(0.109678 -0.0198063 0.311257)
(0.0758656 -0.092766 0.241391)
(0.138491 -0.0655533 0.130506)
(0.12528 -0.074266 -0.0517212)
(0.0176626 -0.111579 -0.0636488)
(0.0271504 -0.124483 -0.0306087)
(-0.0101484 -0.0597952 -0.135863)
(-0.0208726 -0.0487886 -0.116209)
(0.0553417 0.00998713 -0.0601505)
(0.0627939 0.0145111 0.169273)
(0.0575003 -0.013916 0.0919681)
(0.0304774 -0.0419662 0.184082)
(0.0503699 -0.0223445 0.166074)
(0.0207982 -0.0145624 0.0233393)
(0.00501889 0.016616 -0.00204208)
(0.053665 -0.0100437 0.0242474)
(0.0491405 -0.0100608 0.120566)
(0.0187328 -0.0623142 -0.0548661)
(0.0546111 -0.0452098 0.0471182)
(-0.0349688 0.0139468 -0.202037)
(-0.0299677 -0.00048092 -0.172827)
(0.0124308 -0.00426448 -0.181531)
(-0.011294 0.00106206 -0.16407)
(-0.0391716 0.0647867 -0.171855)
(-0.0176316 0.0157044 -0.178455)
(0.0178951 0.0083776 -0.0896679)
(0.0181616 -0.0767724 -0.0462598)
(0.0338122 0.0232348 0.0159464)
(0.022426 -0.060627 -0.0187519)
(0.148174 -0.0173898 -0.11615)
(0.169824 -0.00349065 0.154028)
(0.171476 -0.0433232 0.418914)
(0.122355 -0.115454 0.486073)
(0.131454 0.110816 0.499045)
(0.0229857 0.138195 0.465468)
(-0.0622721 0.135813 0.249473)
(-0.0292385 0.209148 0.183647)
(0.0635963 0.145451 0.0234968)
(0.0271628 0.180785 -0.0292093)
(0.0451355 0.204697 -0.0238139)
(0.00452837 0.0935136 0.13801)
(0.0362539 0.212964 0.0692313)
(0.0460708 0.112295 0.077112)
(0.00161077 -0.0252147 -0.0754417)
(0.00339859 0.0175404 -0.070724)
(0.045497 -0.119036 0.0757301)
(0.0564085 -0.0178441 -0.0670951)
(0.0127727 0.0363285 0.0622721)
(-0.0568791 0.0400897 0.161845)
(-0.0116492 -0.0504784 -0.00639442)
(0.0746683 -0.160656 -0.00226176)
(0.176098 -0.0519519 -0.0596142)
(0.075555 0.0214906 -0.300186)
(0.148636 -0.00377873 -0.168356)
(0.00228913 -0.00220227 -0.111747)
(0.0633738 -0.0723495 -0.0467575)
(-0.00862203 -0.0130163 -0.115653)
(-0.0148186 0.0331826 -0.0542347)
(-0.0234273 0.0839823 -0.0815227)
(-0.009149 0.112883 -0.065363)
(-0.0169774 0.0703009 -0.0912047)
(-0.0457655 0.067043 -0.170546)
(-0.0296808 0.0664281 -0.0995716)
(-0.0233605 0.0110828 -0.137015)
(-0.014343 0.019549 -0.114265)
(-0.00167195 -0.0295863 -0.0759893)
(-0.00321 -0.0295217 -0.0177255)
(0.00755354 -0.00535594 -0.0192006)
(-0.00550784 0.0247523 -0.0614635)
(-0.012366 0.0143863 -0.084225)
(-0.0175889 0.0165248 -0.0998865)
(-0.0181478 0.00916771 -0.0962308)
(-0.0175675 0.00173375 -0.102387)
(-0.0169737 0.0046174 -0.0925046)
(-0.0145046 -0.00232899 -0.0829569)
(-0.00478776 -0.0104123 -0.0668646)
(-0.00864258 -0.00635107 -0.0810496)
(0.00511356 -0.0126974 -0.0822017)
(-0.0077014 -0.0102728 -0.0788683)
(-0.0125246 0.00103938 -0.0938308)
(-0.0191377 0.00446639 -0.0961246)
(-0.0229958 0.031574 -0.0963052)
(-0.0165765 0.0474174 -0.109613)
(-0.0197558 0.0347447 -0.0852723)
(-0.0349308 0.0563541 -0.0613789)
(-0.0518214 0.0084112 -0.0212879)
(-0.0518937 0.0249168 -0.0493431)
(-0.0548931 0.0362041 -0.0398162)
(-0.00856262 0.0529875 -0.0713156)
(-0.00843674 -0.0537511 -0.0708977)
(0.0343132 -0.0243007 0.0145128)
(0.0261668 0.0615083 -0.0148682)
(0.146529 0.0205225 -0.104515)
(0.171921 0.00887174 0.153454)
(0.181507 0.0414692 0.431545)
(0.118496 0.0295543 0.347548)
(0.0165646 0.0958238 0.383894)
(-0.0540059 0.188198 0.264948)
(-0.0308197 0.193019 -0.0935155)
(0.0138812 0.209642 -0.0245628)
(-0.0847323 0.1625 -0.388293)
(-0.0157041 0.145958 -0.337069)
(0.0510762 0.157404 -0.168899)
(-0.0153247 0.175362 0.0377908)
(-0.0583741 0.264563 -0.0645018)
(-0.13885 0.209574 -0.226719)
(-0.117811 0.192851 -0.31067)
(-0.0472225 0.155522 -0.298661)
(-0.0649808 0.252519 -0.165659)
(-0.0508407 0.226562 -0.144396)
(-0.0436391 0.126949 -0.094849)
(-0.0403039 0.0733581 -0.0677555)
(-0.0377731 0.0160425 -0.101389)
(-0.0210604 0.0214938 -0.109009)
(-0.0164186 0.0185195 -0.0998446)