/*--------------------------------*- C++ -*----------------------------------*\
  =========                 |
  \\      /  F ield         | OpenFOAM: The Open Source CFD Toolbox
   \\    /   O peration     | Website:  https://openfoam.org
    \\  /    A nd           | Version:  7
     \\/     M anipulation  |
\*---------------------------------------------------------------------------*/
FoamFile
{
    version     2.0;
    format      ascii;
    class       volScalarField;
    location    "18.9";
    object      alpha.water;
}
// * * * * * * * * * * * * * * * * * * * * * * * * * * * * * * * * * * * * * //

dimensions      [0 0 0 0 0 0 0];

internalField   nonuniform List<scalar> 
15191
(
0.0570013
0.0539451
0.0315911
0.00880852
0.00410851
0.00388302
0.00154549
0.000237492
0.000108121
8.62115e-05
8.45511e-05
2.28139e-05
1.1965e-05
2.77208e-06
6.34007e-10
7.62575e-20
9.21831e-29
7.82066e-26
3.77605e-19
7.59291e-18
1.06899e-17
2.56942e-17
1.53143e-16
9.54959e-10
1.05395e-09
7.45682e-20
1.15557e-29
1.86038e-29
6.22004e-30
6.87057e-29
7.9186e-28
1.70893e-31
3.99222e-32
5.41358e-33
1.38693e-33
9.49206e-34
7.32286e-33
2.66427e-28
1.52734e-28
6.75535e-29
4.2801e-29
1.17178e-28
2.3757e-28
5.20457e-28
6.77817e-32
2.38412e-33
3.39712e-32
2.24252e-30
1.14871e-31
8.66675e-34
8.07653e-28
4.29462e-28
1.99779e-28
1.85281e-28
2.06181e-22
7.95811e-22
9.56439e-30
2.49759e-29
2.52432e-29
3.79046e-33
2.82121e-33
5.46937e-33
2.93884e-33
1.47526e-33
6.65391e-34
4.69557e-29
1.25483e-29
6.65127e-30
4.07762e-23
6.39209e-24
1.45889e-17
4.19976e-18
4.23168e-16
2.08442e-08
1.30302e-08
1.31763e-16
6.33162e-18
2.10497e-19
3.8088e-26
7.09749e-29
4.58347e-29
7.32854e-29
2.0865e-28
4.33257e-31
1.25587e-30
2.6668e-32
7.05042e-31
9.80409e-33
7.7078e-27
1.3516e-23
1.17407e-23
2.4085e-23
3.5132e-21
3.9766e-25
4.03728e-26
1.35084e-25
6.89852e-24
2.12745e-22
2.44815e-25
4.12673e-34
3.33264e-33
2.32208e-31
6.61594e-46
1.19348e-33
3.36349e-30
1.29177e-31
4.29084e-33
1.04287e-38
4.50247e-39
1.71155e-34
1.63833e-34
5.22903e-37
1.20844e-37
3.44826e-31
4.25199e-29
9.82376e-29
7.58099e-31
4.33757e-37
1.98855e-40
1.697e-43
5.48063e-37
1.42046e-38
6.74663e-48
8.63861e-37
6.19314e-27
4.43726e-34
1.32704e-43
5.77638e-44
6.02559e-41
1.46775e-39
1.12179e-41
1.02319e-42
2.54316e-42
3.63302e-41
1.67651e-40
1.71502e-31
1.2932e-35
1.95835e-41
7.48501e-37
1.0413e-33
3.0669e-42
7.63916e-35
1.7576e-30
9.07596e-33
1.07763e-34
3.69184e-38
1.29995e-38
6.70479e-36
6.81955e-36
4.04521e-39
1.018e-38
2.95497e-33
1.41753e-33
4.60547e-32
4.29274e-35
5.7856e-36
1.40616e-25
4.76798e-25
1.49997e-25
3.08009e-25
1.72248e-24
5.34137e-21
2.29761e-20
1.06492e-21
8.07848e-22
3.12698e-20
9.91429e-18
9.65532e-20
3.66455e-23
3.76897e-24
1.13832e-23
1.28012e-20
2.70837e-21
3.92639e-35
1.29627e-44
6.6687e-38
7.36509e-34
4.82996e-46
1.2027e-33
4.13607e-30
1.13298e-32
1.46946e-34
2.46642e-38
8.57605e-39
6.05996e-37
9.39957e-38
2.4148e-39
7.14449e-39
7.7626e-38
3.33392e-37
8.75336e-37
2.65512e-37
1.77522e-40
3.72067e-48
1.23135e-51
5.66409e-31
5.80397e-31
1.78202e-31
7.98555e-26
5.83871e-23
3.24124e-25
2.0108e-25
1.0884e-24
5.42607e-21
2.25736e-18
3.51246e-20
4.39048e-23
1.98202e-23
2.32015e-23
1.0455e-24
1.60064e-24
1.87389e-23
3.04989e-28
4.87374e-30
4.81213e-30
4.59468e-30
1.31915e-30
4.15907e-38
1.96572e-36
5.37411e-37
2.15472e-37
1.91235e-37
1.6248e-37
1.54626e-37
1.35237e-37
1.46293e-37
6.18093e-37
5.46212e-37
6.13897e-37
2.56148e-36
2.84724e-36
3.83566e-36
7.76418e-37
2.14342e-34
1.61586e-34
2.35208e-33
4.45926e-30
1.18e-30
1.27314e-32
1.66601e-33
9.85132e-33
4.11567e-33
3.7953e-34
1.07077e-34
1.2839e-34
3.1795e-34
3.10211e-39
2.68649e-34
1.06944e-33
5.82179e-35
4.54526e-35
1.60134e-35
1.43434e-35
8.92261e-36
1.9188e-35
6.19452e-36
2.53569e-36
2.15885e-36
6.4359e-36
4.66966e-35
1.80021e-34
3.63398e-35
4.52839e-33
6.2418e-33
1.64366e-33
8.94153e-34
2.83982e-34
2.97369e-33
2.26348e-33
5.73653e-34
6.15765e-34
4.02533e-33
7.08393e-34
1.97606e-34
9.86338e-32
6.5501e-30
7.81318e-32
1.83752e-33
1.18849e-26
6.96944e-26
6.80154e-32
1.37945e-32
3.21714e-36
2.58108e-35
9.83075e-36
1.86452e-36
4.36747e-37
1.08673e-36
3.0297e-36
1.07823e-35
8.67531e-35
8.437e-36
2.17859e-36
2.88891e-35
1.42781e-34
2.95545e-30
1.94345e-11
2.3076e-15
7.34462e-32
4.63126e-21
4.003e-21
3.27014e-21
3.1751e-21
1.83182e-21
1.65909e-21
1.02344e-21
8.91908e-15
3.57277e-13
3.78739e-13
4.44725e-12
1.86801e-10
3.33953e-09
3.37753e-09
1.44585e-08
1.03904e-07
5.57474e-07
1.64679e-06
2.17288e-06
5.03996e-06
1.24816e-05
2.55366e-05
4.89223e-05
5.33227e-05
9.7189e-05
0.000159122
0.000288197
0.000578903
0.000916494
0.00126204
0.00216568
0.00329623
0.00880927
0.011654
0.0262326
0.0429711
0.0673804
0.128149
0.153712
0.2132
0.324578
0.487348
0.505004
0.400829
0.497499
0.494217
0.33011
0.337492
0.333362
0.206661
0.12722
0.12636
0.0673951
0.0519678
0.0282108
0.0435513
0.0786622
0.073123
0.0941484
0.143183
0.213197
0.204199
0.144551
0.125415
0.118807
0.0791278
0.0401791
0.0362114
0.0167845
0.0188253
0.019063
0.00679298
0.0105796
0.00419431
0.00225414
0.00187482
0.00333933
0.00546627
0.00489758
0.00611401
0.00641643
0.00611496
0.00668277
0.00804677
0.0037173
0.0022025
0.00274024
0.00130079
0.00120289
0.00132269
0.00049657
0.000517257
0.000283874
0.000141428
0.000120007
0.000167713
0.000292705
0.000273836
0.000537991
0.000566881
0.000264449
0.000175974
0.000152418
6.34499e-05
7.96465e-05
6.97197e-05
3.69082e-05
3.96161e-05
2.60514e-05
1.11267e-05
7.27706e-06
2.47929e-05
3.50808e-05
2.08779e-05
2.5681e-05
2.12423e-05
1.44954e-05
2.08783e-05
1.89835e-05
4.42182e-06
5.1425e-06
3.24471e-06
6.35957e-07
1.20258e-06
4.17762e-07
7.27046e-08
1.18844e-08
3.98321e-08
1.89491e-07
1.70032e-07
7.16205e-07
6.67558e-07
1.45699e-07
6.09658e-08
4.12151e-08
1.3464e-08
1.10907e-08
7.12379e-09
1.37168e-09
1.55422e-09
2.16044e-10
1.2652e-11
6.48157e-13
7.05321e-11
2.73011e-10
3.96841e-10
2.131e-09
2.06634e-09
3.85133e-10
1.29921e-10
8.30208e-11
2.64076e-12
8.06015e-13
1.18575e-13
1.561e-13
5.00174e-15
3.18858e-22
3.13556e-39
8.36552e-39
1.89582e-31
3.05338e-15
5.11776e-16
4.86603e-37
7.71324e-34
7.12326e-16
3.74915e-15
2.59054e-15
3.86617e-13
7.22602e-11
4.29767e-10
1.90703e-09
2.1306e-09
6.50633e-09
5.24815e-08
1.85692e-07
6.17525e-07
7.36902e-07
1.72832e-06
5.40832e-06
1.15615e-05
2.42936e-05
2.70163e-05
5.43588e-05
0.000137555
0.000298307
0.000546144
0.000787824
0.00146037
0.00233079
0.00515445
0.00785773
0.0221587
0.0364205
0.043768
0.0771046
0.125034
0.210468
0.337334
0.491269
0.333631
0.343844
0.211196
0.160554
0.219632
0.219741
0.339749
0.48052
0.479629
0.351957
0.272139
0.371674
0.494487
0.488035
0.479776
0.481887
0.343284
0.350987
0.230064
0.226011
0.218694
0.119738
0.130278
0.142628
0.122139
0.0813788
0.044061
0.0212021
0.0215606
0.01338
0.0089261
0.0124534
0.00917169
0.0191523
0.0371006
0.0418218
0.0632314
0.0679249
0.0718412
0.0721803
0.0428003
0.0194042
0.00883442
0.00411615
0.00476029
0.00571433
0.00293267
0.00138663
0.000544194
0.000522601
0.000282661
0.00012873
0.000229884
0.000178281
0.000406215
0.000880483
0.00163502
0.00223374
0.00434297
0.00309321
0.00533184
0.00738741
0.0155072
0.032006
0.0626396
0.0733607
0.125364
0.170627
0.137875
0.0978851
0.0674669
0.0937103
0.13524
0.225699
0.221191
0.350121
0.485327
0.616741
0.69388
0.771421
0.751751
0.620523
0.63719
0.50385
0.443302
0.527412
0.507662
0.614457
0.75128
0.758482
0.650073
0.529241
0.382918
0.38341
0.414834
0.363532
0.338023
0.21185
0.129656
0.130315
0.081434
0.0428482
0.0437967
0.0441553
0.0324562
0.0186962
0.00829754
0.00727631
0.00441819
0.0028348
0.00168216
0.00150783
0.000709725
0.000736999
0.000349426
0.000230416
0.000357907
0.000488295
0.00101946
0.00144401
0.0022621
0.00342798
0.00613333
0.0119098
0.0253781
0.0216493
0.0303915
0.0279975
0.036476
0.0768011
0.0814504
0.119159
0.22396
0.227008
0.297438
0.298657
0.384497
0.528603
0.64918
0.758437
0.751537
0.75205
0.621947
0.614429
0.5079
0.414668
0.386141
0.364267
0.224786
0.226436
0.133395
0.133939
0.0885655
0.0354723
0.0400075
0.0251819
0.0194914
0.0183605
0.00984064
0.0129827
0.00717617
0.0037778
0.00179513
0.00161945
0.000946485
0.000538104
0.000681303
0.000349166
0.000322026
0.000234492
0.000173136
0.000173138
0.000130379
9.26194e-05
8.84506e-05
5.46332e-05
1.64783e-05
2.1072e-05
7.90825e-06
4.5587e-06
6.29081e-06
6.85765e-06
1.59499e-05
2.29191e-05
5.76789e-05
5.24432e-05
4.88368e-05
5.18145e-05
2.16516e-05
8.29555e-06
3.25005e-06
3.61203e-06
4.03471e-06
1.48458e-06
4.18383e-07
5.21721e-07
1.47239e-07
4.9283e-08
1.14537e-07
1.5183e-07
5.19792e-07
5.37156e-07
8.17395e-07
2.47177e-06
3.21434e-06
1.17389e-05
1.50597e-05
4.71773e-05
9.71039e-05
7.68862e-05
0.000154951
0.000210445
0.000137771
9.19796e-05
0.000149956
0.000137068
0.000268398
0.000225608
0.000360774
0.00071386
0.00143244
0.00280049
0.00535446
0.00362065
0.00884949
0.0116959
0.0113099
0.0286961
0.0285639
0.0357846
0.0885955
0.0813376
0.119445
0.130448
0.212918
0.337614
0.442996
0.52868
0.504719
0.485901
0.616992
0.623641
0.482598
0.343846
0.350557
0.221663
0.130829
0.0818448
0.0768855
0.0363386
0.0398624
0.0247823
0.0115791
0.0113162
0.00781521
0.00783679
0.00260294
0.00142529
0.00178342
0.000940444
0.000445924
0.000326482
0.000305953
0.000331422
0.000181662
0.000181954
9.92831e-05
8.25464e-05
5.71996e-05
5.72006e-05
3.56941e-05
3.77354e-05
1.67499e-05
9.79804e-06
4.02683e-06
2.69398e-06
8.14456e-06
2.18734e-05
2.80146e-05
1.83976e-05
4.16784e-05
6.10141e-05
6.60737e-05
2.36218e-05
4.65989e-05
6.34713e-05
0.000123631
6.5084e-05
0.000104861
0.000331434
0.000305988
0.00044947
0.000764068
0.000724941
0.00137868
0.00255301
0.00355003
0.00876326
0.00978319
0.0182874
0.0275742
0.0193671
0.0229362
0.0271407
0.0271457
0.0230913
0.0199551
0.00838699
0.00457783
0.00228139
0.00119416
0.000363187
0.000460439
0.000253198
0.00019141
0.000128897
7.04182e-05
3.51848e-05
2.84328e-05
3.36675e-05
2.19907e-05
2.14963e-05
1.39053e-05
8.95901e-06
4.97508e-06
4.60696e-06
2.82397e-06
1.709e-06
8.01279e-07
2.27329e-07
3.31839e-07
1.21468e-07
3.59741e-08
8.87769e-08
2.23891e-07
8.69392e-07
1.33116e-06
2.21519e-06
3.18978e-06
1.70765e-06
2.98661e-06
3.07867e-06
7.99053e-06
8.46651e-06
2.41224e-05
1.55331e-05
3.10488e-05
3.6082e-05
3.72691e-05
3.68763e-05
6.42696e-05
0.000103116
0.000316369
0.000305953
0.000425774
0.000431251
0.000915577
0.00174359
0.00281431
0.00532838
0.00726893
0.0131049
0.0217376
0.0305726
0.0432302
0.044202
0.0442991
0.0680218
0.0934708
0.135597
0.225968
0.231013
0.352228
0.488793
0.624334
0.621601
0.494861
0.372591
0.273038
0.227199
0.170764
0.137975
0.0981372
0.0734498
0.125872
0.120372
0.219262
0.219644
0.340168
0.481502
0.491616
0.334198
0.220281
0.160012
0.141862
0.130212
0.0631703
0.0627954
0.0318175
0.0322849
0.0183732
0.0255992
0.012198
0.00621134
0.00345173
0.00384368
0.00184617
0.00144514
0.000741128
0.00033695
0.000305988
0.000310977
0.000194365
0.000128236
6.56771e-05
3.38463e-05
3.56626e-05
3.14193e-05
1.54653e-05
7.03304e-06
7.34841e-06
2.63167e-06
2.40256e-06
1.04405e-06
1.18853e-06
1.51837e-06
7.69793e-07
5.93694e-07
9.56933e-08
5.02821e-08
3.68211e-08
2.74011e-08
4.0448e-08
4.59871e-08
3.32396e-08
5.13982e-09
8.31979e-10
1.51087e-09
3.1018e-10
8.39609e-12
7.49751e-11
1.47232e-10
7.25069e-10
1.00344e-09
3.48087e-09
4.43619e-09
7.18589e-09
1.29329e-08
2.93818e-10
2.3495e-11
4.37355e-12
5.26685e-12
5.88951e-12
1.26142e-13
2.52687e-15
6.64168e-16
1.22855e-23
2.36051e-25
4.49364e-25
2.82355e-24
3.93513e-24
2.36008e-37
2.5123e-37
2.79999e-37
3.50044e-22
7.69935e-22
5.21321e-23
1.84629e-26
3.79655e-31
3.75991e-21
9.2694e-22
1.39947e-21
2.38701e-37
2.05168e-37
1.01802e-21
2.16088e-21
1.62915e-37
9.85732e-22
1.66562e-21
1.33221e-22
8.58434e-22
2.69925e-21
3.38093e-39
8.92106e-39
5.45051e-14
2.15705e-13
7.88805e-14
1.01238e-14
4.21961e-13
5.51786e-13
3.86134e-12
1.44046e-10
8.69678e-09
1.10264e-08
1.11084e-07
1.06135e-06
1.61099e-06
1.32368e-06
2.73253e-06
8.94433e-06
1.33745e-05
2.96611e-05
4.67559e-05
7.26615e-05
0.000142792
0.000228575
0.00032599
0.000350045
0.000845805
0.00147753
0.00206986
0.00413677
0.00512688
0.00794008
0.0260167
0.0328542
0.0671215
0.086246
0.141786
0.226405
0.327132
0.476832
0.34061
0.227128
0.215306
0.211525
0.123635
0.0696539
0.0700006
0.0315708
0.0250386
0.0241454
0.0214925
0.00879514
0.00454058
0.00384696
0.00177788
0.00166304
0.00134443
0.00120527
0.000417172
0.00020741
0.000262794
0.000214214
0.000102225
9.05211e-05
6.30138e-05
2.48873e-05
1.58864e-05
3.03277e-05
1.67351e-05
9.47636e-06
5.64518e-06
3.25769e-06
8.04415e-07
2.77628e-07
5.02574e-07
2.5712e-07
4.72882e-08
1.90196e-08
2.34078e-08
2.02164e-09
5.96815e-09
1.41049e-10
3.22893e-12
9.40056e-12
1.06518e-11
8.03508e-13
1.5952e-12
2.61197e-13
1.14392e-31
7.96287e-32
6.30589e-30
1.00977e-30
4.72818e-23
6.5976e-15
3.07221e-13
1.54866e-13
1.81105e-13
1.19569e-12
1.04505e-10
1.97388e-08
2.84218e-08
5.34155e-07
4.37331e-06
4.85995e-06
2.50078e-06
2.47296e-06
6.58916e-06
2.12231e-05
3.83093e-05
5.02877e-05
7.8214e-05
0.000133941
0.000203671
0.000242098
0.00021202
0.000370177
0.000885302
0.00243123
0.00217299
0.00315033
0.00611911
0.0124971
0.038752
0.0510878
0.0780384
0.135385
0.197412
0.309835
0.468334
0.355441
0.210196
0.128679
0.0699784
0.0425241
0.0180712
0.0208812
0.00885543
0.0039252
0.00243536
0.00227672
0.00120896
0.000503002
0.000262313
0.000194127
0.000203138
7.50536e-05
2.91144e-05
2.15083e-05
1.49579e-05
7.00133e-06
2.78483e-06
5.75118e-07
1.80771e-07
4.86518e-08
5.44112e-08
3.38967e-09
4.21502e-10
9.08211e-11
1.88844e-11
4.55251e-12
3.92242e-13
1.63984e-12
4.00292e-12
7.14915e-15
4.52715e-31
2.77302e-31
3.94602e-31
1.40695e-31
2.78862e-35
2.46471e-34
1.12835e-31
4.49998e-29
7.05641e-29
1.36713e-15
8.56164e-14
2.0452e-13
1.31438e-11
2.37522e-11
8.26187e-11
1.03145e-08
7.21124e-08
1.3775e-07
5.52669e-07
1.94146e-06
6.43103e-06
1.385e-05
1.96597e-05
2.42521e-05
2.45014e-05
3.74404e-05
8.60699e-05
0.000156309
0.000150017
0.000132225
0.000163157
0.00027062
0.000550459
0.00117127
0.00142267
0.00350086
0.00627448
0.0184101
0.022995
0.035414
0.0715967
0.118785
0.194929
0.413018
0.164498
0.0543994
0.0142628
0.00211337
0.000366808
0.000195417
2.32633e-05
9.87209e-06
2.38513e-06
1.59901e-07
2.72722e-09
5.72417e-10
7.44232e-12
1.74737e-29
7.75326e-28
4.94305e-28
2.93422e-28
6.14019e-28
2.4405e-29
2.2365e-29
3.69991e-33
1.14724e-34
2.46911e-34
3.95499e-33
7.03613e-33
1.22885e-29
3.95975e-13
1.77193e-30
2.09586e-33
3.37609e-33
1.04542e-33
4.11777e-29
1.06574e-29
6.79748e-08
2.95447e-07
1.32693e-06
1.32931e-06
4.39297e-06
5.26404e-06
1.05115e-05
2.08739e-05
5.29519e-05
8.10029e-05
0.000127539
0.000194968
0.000200119
0.000201669
0.00043525
0.000999069
0.00209681
0.00315378
0.00528023
0.00735143
0.0138053
0.0233112
0.0340507
0.0683255
0.414925
0.166886
0.0544815
0.0135432
0.00248717
0.000649725
0.000187478
4.50916e-05
1.09655e-05
4.84145e-06
1.63093e-06
5.73003e-07
2.60192e-07
6.51389e-08
1.52923e-08
3.46021e-10
9.68956e-11
2.9549e-12
4.0978e-12
9.0074e-12
1.24752e-10
8.88737e-10
6.29215e-09
7.95777e-09
1.38069e-08
1.53304e-08
3.45535e-09
2.16804e-09
4.28493e-10
2.25942e-11
9.58131e-12
8.67431e-13
3.50891e-13
1.49829e-13
9.77069e-12
1.45449e-13
1.12361e-14
1.71092e-14
5.68734e-25
1.05407e-24
7.63618e-49
4.90687e-48
4.50876e-45
6.10606e-43
6.32676e-27
2.31296e-25
8.99293e-26
1.12544e-24
1.84525e-26
4.12874e-14
3.56962e-14
2.6351e-14
1.94487e-14
1.72879e-14
4.68709e-15
5.50111e-15
2.3143e-14
2.3354e-21
1.09017e-22
3.23436e-14
7.4884e-14
2.48392e-12
7.00164e-13
6.36266e-13
5.23938e-13
1.53177e-12
7.33028e-14
3.49059e-13
2.55447e-11
3.97983e-34
8.58075e-34
2.04358e-31
9.81902e-31
1.19355e-12
3.96993e-15
3.63035e-31
1.1668e-30
5.96912e-30
5.96502e-30
3.92838e-30
2.52729e-30
1.22775e-26
7.9356e-17
4.69547e-16
1.98145e-13
2.52853e-11
2.30267e-11
2.34156e-10
1.89603e-09
1.86657e-09
2.43736e-08
2.09542e-07
3.07821e-07
8.37805e-07
1.62148e-06
2.97483e-06
5.16719e-06
9.25904e-06
1.04489e-05
1.89326e-05
2.61082e-05
6.29596e-05
0.000188314
0.000313545
0.000313444
0.000278921
0.000521986
0.00177495
0.00185646
0.0029892
0.0070508
0.0218325
0.0353963
0.0583958
0.0839159
0.11814
0.200768
0.329369
0.206581
0.126237
0.0754071
0.0406026
0.0213996
0.0148211
0.00563293
0.00373773
0.0044
0.00577017
0.00244538
0.00145536
0.000761758
0.000329799
0.000242042
0.000144676
0.00018162
0.000132485
0.000132226
0.000140871
9.70873e-05
4.02469e-05
2.68502e-05
2.01809e-05
3.17914e-05
1.95974e-05
6.24868e-06
2.92032e-06
6.09341e-06
3.56745e-06
1.34588e-06
2.02663e-07
1.24191e-07
1.83153e-08
5.91247e-11
5.79303e-12
3.41502e-12
3.0496e-12
1.90042e-13
3.43851e-15
5.78561e-16
6.40639e-16
9.1703e-27
2.79074e-29
1.90286e-31
7.36391e-30
1.18462e-29
1.04549e-29
4.2833e-31
2.82497e-33
5.10537e-30
7.88634e-31
2.35808e-30
2.91327e-14
9.06012e-15
4.97411e-15
6.43391e-15
6.59432e-15
5.67457e-16
4.98118e-14
4.37597e-12
6.02173e-12
1.57644e-10
9.91303e-10
5.67696e-10
8.67057e-09
6.49446e-08
7.69874e-08
3.11608e-07
1.39317e-06
1.67854e-06
5.73864e-06
3.88855e-05
3.88856e-05
2.58966e-05
2.71538e-05
6.30216e-05
0.000121656
0.000178994
0.000179169
0.000385248
0.000966097
0.00158802
0.002787
0.00414221
0.00460547
0.00620928
0.0180843
0.0466484
0.0523315
0.0699598
0.113925
0.192558
0.204704
0.126323
0.078018
0.0439512
0.0421262
0.0169831
0.00660561
0.0029782
0.00383776
0.00214674
0.000951656
0.000498162
0.000378026
0.000242343
0.000242177
8.01452e-05
8.16825e-05
2.7157e-05
1.64862e-05
1.79573e-05
3.88366e-05
4.07634e-06
8.95122e-07
1.27063e-06
4.5097e-07
1.19569e-07
9.8045e-09
1.15816e-08
4.05945e-09
2.57974e-10
1.84097e-11
2.91162e-11
3.78207e-11
3.36446e-10
3.18832e-10
5.39266e-09
4.37715e-08
3.58372e-08
2.07468e-07
8.82473e-07
1.1786e-06
6.63378e-06
1.23207e-05
2.55115e-05
1.83522e-05
3.6788e-05
3.14871e-05
8.16265e-05
0.000135899
0.000121656
0.00017846
0.000430672
0.00126098
0.00176632
0.00341475
0.00545184
0.00837644
0.00763148
0.0227672
0.0349612
0.0705431
0.0829177
0.133014
0.200153
0.202305
0.130838
0.0896148
0.082659
0.0422925
0.0215414
0.00789295
0.0078425
0.00452293
0.00308594
0.00107362
0.00143758
0.000507277
0.000273492
0.000187994
0.000176961
9.39036e-05
4.0533e-05
1.83528e-05
1.83524e-05
2.14352e-05
2.69353e-05
5.89178e-06
6.098e-06
6.04368e-06
1.24582e-06
1.99123e-07
2.10162e-07
1.75072e-07
3.00878e-08
3.41288e-09
2.63481e-09
1.13044e-08
3.6016e-08
3.58647e-08
4.49436e-09
1.23662e-10
2.07936e-10
3.05959e-12
3.67397e-11
2.38253e-10
1.40524e-11
2.2952e-11
2.71213e-11
2.11075e-12
1.50057e-12
2.67488e-13
1.55738e-14
4.9602e-14
2.652e-22
0.00350565
0.00589201
0.0190466
0.032974
0.0531272
0.0622368
0.120835
0.414533
0.167605
0.0531057
0.013526
0.00233761
0.000548888
0.000141825
3.50309e-05
1.04155e-05
2.52888e-06
2.45926e-07
4.83856e-09
4.43221e-10
2.41237e-10
8.76747e-12
8.97442e-12
4.45194e-12
4.3068e-15
1.47783e-12
4.1695e-13
2.4809e-13
1.9087e-12
9.23971e-11
2.90513e-11
4.52772e-12
1.55346e-11
3.9801e-12
6.15433e-12
5.08877e-12
3.23986e-10
2.57311e-12
1.32852e-12
2.79479e-13
5.28111e-15
7.6464e-14
5.58077e-15
4.82266e-26
2.87491e-38
1.0061e-38
1.07791e-38
2.99238e-38
2.8963e-29
1.00378e-31
4.26251e-13
4.37907e-12
1.67742e-12
1.39754e-10
1.47295e-13
1.42429e-14
1.07653e-13
8.06088e-14
2.41537e-13
1.4924e-14
1.32639e-15
1.05562e-15
1.00781e-13
3.44059e-12
4.05488e-12
1.19208e-13
3.37313e-13
7.25207e-13
1.22779e-13
2.07028e-16
2.45035e-27
4.70809e-25
1.07006e-38
8.57501e-38
9.67097e-38
3.73639e-29
3.54078e-29
1.66908e-29
5.17352e-30
3.11419e-29
2.19799e-38
2.87014e-29
3.63557e-29
1.04956e-24
6.8233e-25
2.12894e-24
1.4488e-34
1.21183e-34
0.478832
0.356503
0.210608
0.132074
0.0737401
0.0454505
0.0211054
0.00873663
0.00414145
0.00320223
0.00131078
0.000363744
0.00017503
0.000102209
6.0712e-05
2.20335e-05
1.08667e-05
2.81941e-06
6.34867e-10
1.6563e-09
1.17501e-14
6.40351e-22
1.99192e-28
7.15288e-29
1.72134e-28
3.35843e-11
6.09427e-11
9.28432e-12
2.24301e-13
2.09637e-13
9.89749e-14
3.95675e-13
9.07526e-13
0.487261
0.360376
0.223745
0.125145
0.0633277
0.0464051
0.0243768
0.0089121
0.00350832
0.00260488
0.00140227
0.00029025
0.000171864
9.39045e-05
8.35312e-05
8.41398e-06
3.88122e-06
1.06832e-06
6.26588e-09
2.63168e-10
3.54006e-10
5.03651e-06
1.34925e-05
2.44855e-05
1.63894e-05
5.14322e-05
5.24547e-05
0.000178729
0.000293523
0.000252057
0.000412603
0.000560153
0.000412022
0.000949717
0.00244193
0.00244279
0.00353705
0.00628627
0.0198189
0.0232464
0.0428655
0.0638615
0.123662
0.122975
0.072641
0.0430888
0.0248656
0.0194324
0.00759917
0.00351423
0.00351448
0.0021227
0.00292584
0.00165778
0.000448208
0.000300171
0.000237735
0.000222284
0.000257901
0.000156014
0.000120725
0.000128313
3.59027e-05
2.08732e-05
1.60495e-05
2.29454e-05
9.56148e-06
4.98362e-06
2.96913e-06
5.74937e-06
7.54107e-06
1.17173e-06
1.23036e-06
2.04535e-07
0.48692
0.348189
0.221099
0.123893
0.0762837
0.0484352
0.0229681
0.00756086
0.00637168
0.00636749
0.0125527
0.00280984
0.000687399
0.000103954
3.20775e-05
9.62337e-06
4.06728e-06
3.10234e-07
1.29696e-09
2.5581e-10
2.55612e-10
8.96706e-11
1.39568e-10
7.01359e-13
4.93199e-13
1.38723e-15
5.36225e-31
3.48175e-29
3.85533e-29
1.21643e-28
7.43384e-30
8.35227e-14
8.88013e-18
0.0586505
0.0499913
0.0310877
0.00836092
0.00407972
0.00280553
0.00151857
0.00027086
0.000117775
9.04938e-05
0.000138495
0.000170391
0.000137403
3.04753e-05
3.02021e-05
3.02074e-05
1.37796e-05
1.35948e-05
1.16352e-05
1.09528e-05
3.4292e-06
5.6842e-09
3.46093e-09
0.0206395
0.0422017
0.0746438
0.0655904
0.12055
0.118479
0.0821684
0.0411255
0.0397134
0.0413706
0.0191342
0.00727886
0.00600479
4.70049e-13
7.43618e-09
8.68237e-11
2.52699e-08
1.09594e-10
8.49634e-12
2.28031e-12
3.94541e-13
7.17414e-13
4.87182e-13
6.20113e-15
4.25377e-11
3.32734e-12
2.99295e-11
4.28725e-13
3.04414e-13
3.05636e-14
3.08248e-31
2.30791e-31
1.47701e-29
1.45356e-31
2.69181e-33
1.12128e-32
9.86069e-30
1.46101e-27
4.55204e-27
1.37117e-34
1.56672e-33
1.76021e-33
3.00444e-34
2.53671e-31
6.61985e-31
2.77904e-29
5.7904e-31
1.40914e-30
4.68625e-13
1.04077e-12
9.03698e-12
7.71573e-14
6.73779e-14
6.07508e-14
6.7929e-14
3.55307e-13
3.17907e-13
1.97516e-12
5.52215e-11
3.75999e-11
1.39211e-11
5.77947e-11
3.27293e-10
1.68684e-10
5.39071e-10
5.86528e-10
1.92669e-08
9.4224e-09
5.68955e-09
7.5166e-09
8.47672e-09
8.16599e-09
8.1905e-10
3.93409e-11
5.74419e-11
8.40433e-11
3.68076e-09
4.55183e-08
2.12955e-07
3.6104e-07
1.45635e-06
4.60285e-06
6.53173e-06
2.11445e-05
1.48388e-05
1.22649e-05
2.24805e-05
4.24468e-05
0.000107528
0.000211077
0.000241013
0.000146097
0.000244326
0.000506929
0.00151242
0.00224424
0.00103187
0.000382538
0.000162166
0.000178539
0.000154172
0.000134152
3.29084e-05
2.14224e-05
1.22644e-05
1.29919e-05
1.95927e-05
8.15421e-06
2.98804e-06
1.09714e-06
4.89446e-07
1.40811e-07
3.31091e-08
1.17213e-09
2.68214e-08
9.4841e-08
2.46393e-08
2.15935e-08
6.34131e-09
3.41871e-07
2.6223e-08
0.0589435
0.0501331
0.0312089
0.00853674
0.00428749
0.00281237
0.00150386
0.000279125
0.000117618
0.000108063
3.16502e-05
8.46777e-06
1.39504e-05
1.12685e-05
2.18342e-06
1.59382e-07
1.27786e-08
4.0447e-27
3.69113e-26
1.88491e-25
2.87532e-27
1.84144e-28
1.01775e-20
3.23532e-21
7.06634e-21
9.10183e-21
5.16694e-21
6.96572e-28
6.5555e-26
2.36289e-27
1.19167e-25
1.38075e-26
1.33977e-27
9.46935e-27
8.56241e-19
2.07146e-18
1.65286e-18
3.75963e-18
4.27415e-18
4.72285e-14
6.72545e-14
6.65875e-14
8.27644e-13
1.45402e-11
1.4581e-11
8.62292e-13
5.783e-19
1.40888e-19
6.39129e-19
7.73839e-19
8.12673e-21
4.55905e-21
1.30682e-19
1.05094e-18
3.8606e-13
3.01555e-13
1.08765e-13
1.24811e-13
1.66949e-13
3.7759e-13
4.2325e-13
2.69035e-13
2.47872e-13
3.36556e-13
8.31986e-13
3.7915e-13
3.16167e-14
6.6011e-14
2.21634e-14
3.33961e-15
1.8932e-14
5.67921e-15
1.66188e-15
1.55107e-14
9.71482e-15
1.16304e-14
1.28706e-14
1.28949e-14
2.19607e-14
2.01162e-14
1.14565e-14
8.81853e-15
1.61306e-15
5.39916e-16
6.72608e-16
5.96704e-17
3.48142e-16
9.28295e-16
1.20015e-16
1.2865e-14
4.4268e-14
2.5793e-14
3.52986e-14
1.10123e-14
5.29413e-15
9.32689e-16
1.16389e-15
2.12168e-15
2.05876e-15
3.71429e-15
1.05879e-14
4.03893e-14
2.941e-14
5.82497e-14
4.44961e-13
3.00016e-12
2.99234e-12
5.05987e-11
2.70021e-10
4.11e-10
8.3351e-09
7.57258e-08
1.38161e-07
7.53113e-07
2.54827e-06
2.8574e-06
9.81154e-06
9.81179e-06
9.81205e-06
1.29362e-05
2.57012e-05
6.08619e-05
0.000122406
0.000163777
0.0001827
0.000396071
0.000979208
0.00160589
0.00283184
0.00415186
0.00463416
0.00643759
0.0185382
0.0463354
0.0524558
0.0697788
0.113891
0.192824
0.318974
0.305074
0.199558
0.133425
0.0840183
0.070572
0.035252
0.022967
0.00779892
0.00846135
0.00549337
0.00344245
0.00178054
0.00126062
0.000436489
0.00021542
0.000137071
0.000128883
7.25192e-05
3.49831e-05
1.45514e-05
1.97783e-05
1.38897e-05
5.32471e-06
4.7976e-06
1.44516e-06
3.75386e-07
2.41554e-07
4.82493e-08
3.01536e-09
9.32061e-09
2.26376e-10
1.50327e-11
9.0638e-11
6.9035e-12
5.7238e-13
4.59212e-13
1.45113e-13
1.05624e-12
2.75939e-12
4.49484e-12
2.34133e-12
1.08837e-12
4.2326e-13
1.89918e-13
4.38508e-13
4.69086e-13
4.93399e-14
3.56417e-13
2.11078e-13
9.1151e-14
7.0278e-16
8.34112e-14
4.18631e-14
6.49663e-14
4.58886e-16
1.85585e-13
1.81633e-13
5.43726e-14
1.17785e-13
1.75906e-13
3.5861e-13
3.39272e-13
1.35692e-13
1.20546e-13
5.41146e-14
1.63961e-13
1.5784e-13
1.0344e-14
9.85247e-14
1.37873e-13
1.48753e-13
1.35397e-14
1.89355e-13
5.6031e-13
9.3801e-13
6.64117e-14
1.13354e-12
4.29445e-12
1.08735e-11
1.88438e-11
1.08805e-11
1.30367e-11
3.07725e-11
2.56189e-11
1.65759e-11
4.27732e-12
3.07265e-12
1.1853e-12
2.61716e-11
1.94531e-10
2.41791e-10
7.96389e-11
2.66391e-10
2.05581e-10
3.62568e-10
8.73395e-10
1.15832e-09
7.58447e-10
7.94741e-10
2.2098e-10
6.20331e-10
1.68771e-09
0.0124764
0.00834278
0.00352327
0.00259273
0.000976216
0.000247326
0.000160827
0.000147063
8.27554e-05
2.01277e-05
1.17547e-05
3.52046e-06
3.56623e-09
5.27501e-09
4.72028e-08
3.83116e-08
3.77359e-06
2.70421e-33
4.39127e-33
1.2827e-10
2.34941e-10
2.75577e-11
1.80826e-12
2.10035e-12
2.50229e-12
1.77049e-12
2.08428e-12
4.12455e-12
5.19249e-13
1.23384e-18
1.62201e-23
4.00477e-18
1.33593e-18
3.63566e-17
5.71551e-16
2.10836e-17
5.61618e-19
3.53342e-18
8.96642e-18
3.78765e-18
3.5744e-21
5.23113e-20
4.02347e-20
7.49438e-22
7.72819e-24
2.8354e-23
1.79143e-22
3.86013e-22
3.18317e-23
6.74891e-22
4.93123e-22
1.02817e-21
1.61353e-21
3.87874e-23
1.12036e-23
4.3276e-28
1.16253e-31
5.03929e-31
3.36298e-29
2.84578e-29
7.3591e-30
1.42305e-29
1.05377e-27
1.61441e-25
1.41851e-22
3.7437e-23
1.41862e-22
1.69006e-22
5.6115e-27
8.1355e-28
1.07112e-25
1.51487e-23
6.45528e-25
5.98256e-27
1.53111e-22
1.44402e-22
1.48316e-22
4.72168e-23
2.66601e-22
2.38022e-25
2.90203e-28
2.51423e-16
1.07099e-15
1.97007e-13
9.03434e-12
1.6499e-11
3.53225e-10
2.30785e-09
4.35305e-09
4.5467e-08
4.15049e-07
4.91416e-07
6.86931e-07
1.85524e-06
1.64996e-05
1.67409e-05
1.1383e-05
1.35051e-05
2.40651e-05
3.13739e-05
5.64741e-05
0.000161627
0.000318199
0.000318287
0.00029479
0.000536831
0.00182103
0.00188475
0.00298919
0.00705895
0.0218377
0.0351015
0.0583219
0.0833385
0.118242
0.200678
0.193068
0.123317
0.0666029
0.0547696
0.0418787
0.0169887
0.00676454
0.00303554
0.00390085
0.00216418
0.000954336
0.000492703
0.000386184
0.000206654
0.00018731
7.77838e-05
7.47803e-05
2.56304e-05
1.13823e-05
1.13821e-05
9.81205e-06
1.52543e-05
2.43066e-06
9.5048e-07
9.24216e-07
2.25982e-07
1.96137e-08
1.32749e-08
1.16828e-09
6.70652e-11
6.14006e-11
8.53022e-12
1.3205e-13
2.61635e-13
1.50589e-14
5.24546e-14
4.83713e-13
1.3722e-24
4.60655e-29
8.75246e-25
9.91161e-38
8.49657e-38
3.90713e-38
1.61123e-37
2.2899e-35
8.57855e-36
2.07804e-37
9.11074e-36
3.60754e-36
6.32969e-36
9.86731e-36
1.24972e-35
2.70915e-36
1.97286e-36
1.79256e-36
5.14129e-36
4.98275e-35
1.47532e-34
7.01794e-35
1.12853e-36
4.90373e-36
3.93514e-37
1.33307e-36
6.92849e-36
4.05382e-32
4.53076e-30
1.28934e-30
4.59306e-34
6.21509e-35
5.16796e-30
9.46942e-30
8.42203e-30
8.13368e-30
7.85706e-28
3.71987e-23
8.97788e-24
3.56728e-25
1.1556e-25
2.28762e-27
3.14056e-33
9.11411e-34
1.07636e-27
5.63807e-27
2.11283e-34
3.17375e-35
5.90393e-26
4.84057e-23
1.88746e-12
5.02505e-27
3.14835e-27
6.98441e-12
8.7128e-28
6.51592e-28
8.85263e-12
1.23864e-27
1.17379e-26
2.21228e-34
1.37172e-24
1.07003e-21
4.09668e-19
5.02603e-20
2.50532e-20
1.84046e-20
3.57688e-20
2.8004e-19
7.718e-19
7.14868e-14
2.80001e-12
2.29998e-10
1.05841e-09
1.40881e-09
2.62312e-09
1.64232e-08
2.19126e-08
2.39437e-07
2.69022e-07
5.45299e-07
5.33069e-07
9.70203e-08
3.36506e-07
3.54903e-07
1.14443e-06
1.0885e-06
2.52836e-06
2.34556e-06
8.61907e-06
2.35197e-05
2.55885e-05
2.27698e-05
2.22678e-05
2.50641e-05
5.42613e-05
0.000106533
0.000186525
0.000238335
0.000375012
0.00055295
0.000983013
0.00166943
0.00143481
0.00225751
0.00274674
0.0016243
0.00275345
0.0042992
0.00819806
0.00718969
0.00537081
0.00747779
0.0151622
0.0153973
0.0193654
0.0372051
0.0417063
0.034717
0.0383214
0.0182953
0.0210803
0.00785566
0.00880352
0.00601131
0.00431505
0.00351702
0.00280423
0.0014246
0.00108895
0.00115503
0.000354225
0.000398169
0.000400755
0.000462813
0.000238659
0.000149464
7.50827e-05
3.61188e-05
2.42298e-05
1.82415e-05
1.54673e-05
3.55607e-06
1.8904e-06
1.1049e-06
3.89201e-07
1.11585e-07
5.29328e-08
6.04387e-08
3.41048e-08
1.84027e-09
2.53779e-09
8.5948e-10
1.55419e-09
4.1465e-10
2.60323e-10
3.20811e-12
5.7153e-14
6.69219e-19
6.91158e-19
5.20252e-25
2.66541e-25
1.11422e-24
8.15204e-20
9.47394e-14
1.04572e-11
4.93139e-11
1.25192e-10
2.94099e-10
4.22659e-10
3.35773e-09
4.7363e-09
5.96507e-10
1.25318e-10
1.45529e-10
1.54342e-10
3.57571e-11
1.83716e-11
2.25118e-13
1.17664e-17
1.44762e-16
1.9808e-13
1.74549e-11
4.17393e-11
2.23562e-11
6.70665e-11
2.95455e-10
2.66943e-09
3.90849e-08
8.74323e-08
3.18527e-07
3.05892e-07
1.01069e-06
1.10005e-06
3.03655e-06
8.22123e-06
1.42203e-05
9.5211e-06
2.03802e-05
4.27395e-05
5.72292e-05
7.70485e-05
0.000137469
0.000276369
0.000345533
0.000676743
0.000481422
0.000995881
0.000702858
0.00150731
0.0030978
0.00443564
0.00932742
0.0125781
0.0214297
0.0442062
0.0810931
0.121936
0.125298
0.210923
0.337124
0.406324
0.49897
0.508396
0.494622
0.496612
0.493169
0.343614
0.344011
0.212215
0.224242
0.224191
0.122179
0.0715446
0.0679021
0.0732816
0.0774893
0.0407712
0.0368471
0.0240995
0.0211468
0.00953126
0.00548527
0.00408125
0.00210782