/*--------------------------------*- C++ -*----------------------------------*\
  =========                 |
  \\      /  F ield         | OpenFOAM: The Open Source CFD Toolbox
   \\    /   O peration     | Website:  https://openfoam.org
    \\  /    A nd           | Version:  7
     \\/     M anipulation  |
\*---------------------------------------------------------------------------*/
FoamFile
{
    version     2.0;
    format      ascii;
    class       surfaceScalarField;
    location    "18.9";
    object      alphaPhi0.water;
}
// * * * * * * * * * * * * * * * * * * * * * * * * * * * * * * * * * * * * * //

dimensions      [0 3 -1 0 0 0 0];

internalField   nonuniform List<scalar> 
43852
(
-4.19392e-05
1.66363e-05
0.000176953
-0.000313038
3.76299e-05
1.43095e-05
3.72717e-05
-8.24058e-05
-9.11069e-06
-2.05947e-05
-3.7086e-06
-0.000130165
0.000189342
-2.25557e-05
2.73429e-05
-4.31e-05
-8.8162e-06
5.08333e-05
-1.49689e-05
1.54067e-05
-1.92787e-05
1.81518e-05
-2.01129e-05
-1.00191e-05
1.07557e-05
-1.36188e-05
1.4817e-05
-8.09545e-06
-1.9359e-06
6.70564e-06
-8.61649e-07
-6.51336e-06
3.00346e-06
-9.2068e-07
6.69981e-07
-4.51831e-07
-1.19996e-06
9.26737e-07
-2.72361e-07
2.45851e-07
3.09351e-07
-4.19253e-07
-4.8733e-07
-2.03068e-07
2.0122e-07
1.31217e-07
-5.29416e-08
-1.77032e-07
-8.54817e-08
2.06309e-07
-7.99744e-09
2.51807e-08
-9.24358e-08
-3.27707e-08
-2.38661e-07
5.85522e-07
-2.00403e-07
7.22892e-07
-8.50809e-08
-8.43177e-08
1.74532e-08
-2.52102e-08
-6.76964e-08
1.3198e-07
-6.95749e-08
9.75645e-08
6.31671e-08
-1.14936e-08
2.47452e-08
-2.20758e-08
1.77355e-08
4.4849e-08
-7.97561e-11
-3.42758e-10
6.35748e-08
7.55366e-08
6.46526e-08
-3.84819e-09
1.81085e-08
1.11043e-08
-8.44826e-21
-1.66347e-13
3.20004e-12
-7.65606e-12
-1.20191e-11
-6.28381e-31
-4.71555e-28
-1.59317e-21
5.0139e-22
-6.29887e-24
-1.38237e-31
1.7683e-32
3.74429e-32
-1.53504e-31
4.06401e-31
4.5059e-29
-5.54777e-31
3.47255e-28
-7.16552e-22
-2.72379e-25
1.89149e-21
-7.75932e-21
3.09407e-20
-2.66029e-25
3.85016e-20
-1.19287e-20
6.32142e-20
-2.32851e-24
4.89371e-20
1.80159e-19
-1.47049e-25
7.75265e-21
1.02207e-19
9.68284e-19
-1.13472e-19
-1.99362e-20
1.57407e-17
2.93415e-14
-2.12468e-11
7.54608e-11
-4.46557e-22
-1.55832e-11
-8.3997e-19
8.25759e-11
-8.51256e-32
-8.75539e-22
-2.28844e-28
-4.82401e-31
8.20377e-21
2.58229e-34
-2.9562e-32
6.80095e-32
-1.81086e-32
-1.95091e-32
1.16582e-31
-4.33079e-33
-9.41465e-33
-9.29895e-35
6.19903e-32
-3.1036e-31
9.76805e-34
-3.14933e-33
6.71864e-31
-1.23609e-34
2.0105e-31
-5.58855e-34
-6.68595e-32
0
2.53649e-35
-5.40018e-35
-1.47365e-37
3.98607e-34
4.56061e-36
3.19255e-35
-5.12889e-38
9.06289e-35
6.18109e-37
3.79631e-36
-1.69518e-38
1.192e-35
-2.86943e-38
9.30221e-37
-3.75215e-39
2.93538e-36
-1.42382e-36
5.151e-37
-2.2709e-39
1.69399e-36
4.17e-36
-6.76474e-37
1.124e-35
-1.74702e-35
-3.73344e-32
-4.5807e-33
-1.16671e-35
0
5.55553e-32
0
8.90075e-33
7.01796e-34
0
-1.45555e-31
4.71753e-31
-1.51983e-32
-3.26411e-32
1.61601e-31
0
2.4991e-32
0
-2.36465e-35
-9.62048e-37
-3.52549e-37
-1.68837e-31
-1.07986e-35
0
-2.00063e-37
-1.18006e-34
2.57404e-36
1.13717e-34
-6.65562e-36
-5.6988e-38
3.89968e-36
-5.96273e-35
5.44845e-35
4.61647e-37
3.26232e-34
3.29551e-36
3.64748e-33
8.48299e-35
-6.86738e-39
4.70757e-35
1.85065e-34
4.03641e-36
3.68889e-37
2.65292e-38
-2.69049e-37
1.38581e-36
-7.80613e-32
-6.77406e-33
7.41688e-38
0
-6.65525e-33
0
4.64279e-32
3.26049e-32
-1.25852e-33
0
5.23818e-32
2.03783e-30
-2.64388e-25
1.18876e-24
-1.41619e-32
9.18934e-24
2.40419e-34
-1.93938e-33
1.03861e-32
1.63132e-31
6.72492e-33
0
-1.57055e-36
-1.06071e-36
-2.42355e-37
-2.21421e-33
-2.95405e-37
0
2.68338e-37
-9.78593e-37
6.12393e-36
-5.03445e-40
-4.49802e-37
8.6022e-38
4.6442e-36
2.83121e-37
1.58042e-37
8.68592e-36
6.1302e-37
4.40067e-37
-6.21124e-39
4.41581e-36
2.83784e-37
8.32035e-37
-6.19783e-39
2.24136e-36
3.58878e-37
-4.14144e-41
1.18962e-36
1.96843e-38
2.23899e-33
-1.57406e-32
-4.33596e-38
6.44067e-31
-6.84084e-34
1.70646e-31
1.43421e-33
-1.97778e-32
-3.24622e-35
9.01901e-32
6.80282e-27
5.22601e-25
2.02574e-26
-7.85878e-35
6.33397e-26
-3.1341e-28
4.48826e-23
7.7573e-20
3.5644e-20
2.27015e-20
-4.03972e-25
-3.31756e-21
4.14607e-18
-7.98547e-20
-4.5191e-20
-6.05427e-20
4.24334e-17
-5.94047e-14
1.31122e-09
-5.881e-21
-5.6198e-21
8.8637e-10
-2.59966e-20
-5.28211e-20
1.35283e-17
4.35015e-22
-6.43233e-21
3.20451e-20
-2.15909e-25
-2.22443e-29
1.05819e-21
-2.18373e-25
-1.40803e-32
-2.1363e-31
1.69388e-28
-1.64163e-31
3.47473e-31
-1.07643e-32
-2.16047e-31
6.2767e-31
1.09778e-32
-8.2335e-32
-1.80216e-32
0
1.87748e-33
-3.5699e-34
-5.7881e-35
4.11699e-32
-2.68936e-31
0
-1.44602e-34
4.235e-35
-4.53272e-37
9.85836e-34
-1.07635e-36
-9.5694e-37
2.93283e-33
9.51928e-34
6.21931e-37
6.33017e-35
-1.244e-38
2.07962e-35
-5.13093e-37
1.668e-33
8.52894e-36
6.40002e-37
2.23177e-35
-2.69621e-39
6.23397e-30
6.23883e-31
4.89283e-32
2.3146e-29
4.42683e-27
-6.86007e-30
5.33632e-27
4.48858e-26
7.8466e-27
-4.70521e-29
8.15943e-27
3.71688e-27
7.24939e-27
1.75178e-26
-3.26235e-28
4.91171e-25
6.77506e-24
-1.11518e-29
7.40171e-28
5.30891e-30
-2.34742e-29
9.72552e-29
6.63535e-29
-5.63479e-29
3.56313e-28
1.65578e-27
-2.64379e-28
1.58648e-26
-3.21641e-29
-6.52969e-27
5.05152e-25
-1.98848e-37
-1.25798e-31
4.6312e-28
4.23521e-38
4.22478e-38
6.60059e-37
4.87357e-37
1.29455e-37
7.03262e-36
-2.52605e-49
-1.0241e-34
4.95067e-34
1.04913e-49
2.34049e-50
1.06235e-48
2.07886e-37
3.69367e-38
2.32267e-36
-8.78837e-36
-3.67438e-34
5.62926e-33
-1.34338e-37
-6.7762e-36
2.17864e-34
-2.60459e-42
-1.99381e-40
8.26367e-36
2.68526e-42
-1.06875e-41
1.59052e-41
7.33359e-43
1.61737e-43
7.34258e-42
-4.11911e-39
-7.01989e-39
2.25487e-37
-1.57234e-40
-1.04909e-38
2.13173e-37
-2.93225e-41
5.03495e-41
8.42702e-40
3.10566e-41
-7.63366e-41
1.51244e-40
1.46617e-34
-4.0123e-40
3.13178e-34
-1.85909e-34
-2.05449e-39
7.29008e-32
-1.16919e-34
-7.43759e-39
1.31103e-31
-9.08295e-41
-2.20391e-39
7.38249e-34
-4.94637e-44
1.45904e-41
5.88251e-40
-1.56073e-47
2.08975e-44
3.73656e-43
7.67504e-47
1.41472e-47
2.53714e-46
-1.20804e-42
-1.91266e-40
1.1381e-39
-5.49833e-52
1.75695e-43
2.94036e-41
3.19552e-51
6.90026e-52
1.05707e-50
9.4313e-41
1.58996e-39
-1.33396e-41
-1.36233e-37
1.48518e-29
-1.30458e-31
-5.134e-47
1.99597e-40
9.66118e-37
4.51608e-47
-1.43665e-46
3.06374e-46
3.52659e-47
6.89537e-48
9.63494e-47
1.2339e-44
1.77028e-43
-2.84166e-46
-2.6564e-45
0
-1.02625e-44
-7.83372e-46
0
-1.62682e-46
-8.84628e-46
1.86993e-45
1.3114e-46
4.35531e-46
6.2894e-45
-2.21227e-45
1.70703e-44
9.6051e-44
-2.82626e-44
4.31011e-44
-7.82097e-44
3.9261e-43
-1.72194e-39
4.14553e-34
-1.41764e-35
-9.52043e-45
2.4901e-38
-1.89599e-39
2.04138e-45
2.00658e-45
3.16448e-44
1.16378e-40
2.57054e-41
1.59649e-39
-1.18201e-45
2.25636e-36
-2.32937e-37
4.93401e-46
4.96998e-45
1.08606e-46
1.36593e-38
2.18317e-39
1.5007e-37
-6.06166e-37
2.97176e-33
-1.70257e-34
-3.32564e-39
1.53973e-35
-3.0384e-37
-8.83834e-42
2.09958e-37
-1.71018e-38
1.00669e-41
-3.01123e-41
5.68931e-41
2.84426e-42
6.8197e-43
2.1672e-41
-3.36989e-41
9.01047e-39
-4.77024e-40
-7.85097e-43
9.15064e-39
-2.46303e-40
-2.99412e-42
2.2715e-43
6.65261e-42
3.0799e-42
-1.22158e-41
1.58901e-41
-1.34821e-38
5.66406e-36
-1.83992e-39
2.43951e-37
2.4515e-36
-9.05101e-38
-9.1173e-39
7.50063e-35
-5.70393e-36
6.69146e-40
8.71126e-38
6.5747e-40
1.9953e-39
3.79037e-40
8.71049e-39
-1.70616e-29
3.10313e-28
-3.78238e-29
-8.79903e-29
-8.11495e-29
1.0931e-27
-8.45152e-29
-5.02294e-29
4.06501e-28
6.23447e-29
-2.51526e-28
7.82627e-28
1.04896e-27
8.55851e-30
4.13204e-27
-9.55822e-25
-1.18798e-25
1.25256e-23
2.9902e-25
-4.13366e-24
5.85182e-23
3.73999e-25
-2.4105e-27
2.44443e-24
6.19206e-25
1.14066e-25
1.38866e-24
7.23819e-24
5.96133e-23
-1.45335e-25
-1.79963e-23
1.882e-20
-2.26886e-22
-2.10289e-26
1.79865e-22
-1.75947e-25
-1.2209e-27
4.28185e-27
5.89738e-26
1.44652e-27
-3.49965e-27
8.42493e-27
3.3232e-27
2.41312e-26
2.5082e-28
-2.3606e-25
-1.3471e-24
2.88283e-23
-6.19427e-25
4.73713e-24
-5.78649e-48
-2.04144e-38
7.52553e-38
1.0761e-48
1.23579e-48
2.0723e-47
1.2003e-41
1.92009e-42
1.44627e-40
-2.0605e-49
-2.15328e-37
1.60471e-36
9.01949e-50
1.58286e-50
8.01078e-49
1.88984e-37
3.21502e-38
2.38824e-36
-6.27699e-37
-3.83707e-34
7.17993e-33
-6.74484e-39
-3.95398e-37
1.95737e-35
-6.14184e-42
-3.38329e-38
2.91295e-37
6.3472e-42
-2.03178e-41
3.81441e-41
1.44389e-42
2.78237e-43
1.42529e-41
-2.28257e-42
-2.58232e-40
8.14214e-40
-7.26566e-43
-4.47831e-41
0
-1.72665e-42
2.27878e-43
3.89441e-42
1.83127e-42
-6.12952e-42
8.9641e-42
3.3026e-41
-2.73231e-41
7.03635e-41
8.73396e-43
-1.16056e-40
5.65786e-40
-3.94137e-41
-9.58834e-41
1.1616e-39
-3.71751e-44
-4.13019e-41
2.53835e-40
-9.03761e-52
6.36345e-45
2.45487e-43
-1.27103e-55
3.92308e-52
6.85191e-51
0
9.80547e-56
1.82119e-54
-6.13252e-35
-2.59109e-35
1.14906e-33
-7.83603e-36
9.39993e-36
1.19561e-33
7.24477e-35
1.88291e-35
2.71282e-34
1.42334e-29
-4.8771e-32
1.50622e-28
-1.34033e-28
-2.74178e-27
1.35485e-25
-5.09812e-29
2.60456e-30
7.26101e-28
3.81755e-29
-1.2213e-28
4.42186e-28
7.99626e-28
1.229e-28
1.91115e-27
5.92635e-25
-6.30813e-27
1.00758e-23
-1.20438e-23
4.55622e-21
-1.16726e-26
-3.42506e-25
6.65706e-23
-1.23341e-26
3.10232e-26
-6.74381e-27
1.33365e-26
-1.09506e-29
8.21434e-27
7.50096e-26
-1.18513e-28
4.05355e-28
3.08552e-27
-2.58376e-29
6.18218e-28
-6.95654e-30
4.58789e-27
-3.94019e-32
-2.60732e-29
4.74253e-26
-2.00027e-33
2.20233e-31
-4.62985e-34
3.25674e-33
5.00702e-34
1.0662e-33
-6.76508e-36
1.56612e-32
2.85979e-34
-1.02941e-39
1.33784e-32
-1.32499e-41
1.33923e-33
-2.41228e-41
2.98973e-41
5.35485e-40
5.26379e-41
-4.50282e-39
6.63638e-39
1.39763e-40
-4.74542e-40
1.54458e-39
7.91453e-41
-7.39004e-41
4.28805e-40
5.49989e-41
4.91192e-41
-3.49935e-42
8.28776e-42
-7.2461e-41
8.94945e-42
-6.08039e-41
1.75817e-41
4.19149e-42
-8.76269e-41
3.223e-40
2.78162e-40
-1.02036e-39
-3.46724e-40
2.48749e-39
1.61738e-40
-5.76632e-40
9.64415e-40
2.06191e-41
3.74885e-40
-6.67861e-40
1.54809e-39
-1.70396e-39
-7.14435e-40
6.98877e-39
2.53607e-40
-2.2655e-39
-3.13743e-39
1.20923e-38
1.75074e-40
5.48193e-40
-2.64861e-38
2.10681e-37
4.10332e-38
-3.19103e-39
-3.56869e-39
4.8144e-37
8.66658e-38
1.7877e-36
-2.50563e-34
3.36137e-33
-4.51627e-36
-5.30112e-39
3.32016e-33
1.76928e-37
-3.42128e-38
-2.23976e-38
4.38595e-35
4.86831e-37
1.24937e-36
-4.68587e-37
1.05412e-35
-6.00384e-38
-3.46097e-37
1.24224e-35
3.43748e-38
7.62303e-38
-1.34604e-37
1.26162e-36
4.464e-38
7.42765e-38
9.55614e-38
-1.94473e-42
1.00587e-36
1.65884e-43
3.74801e-43
6.8552e-42
-6.02631e-38
2.85165e-38
7.77674e-37
-1.52913e-38
3.76022e-36
2.03622e-38
-8.78984e-38
1.53245e-37
8.30233e-39
1.74747e-38
-6.44771e-38
1.34651e-37
-8.1049e-39
5.30464e-38
6.57045e-39
-1.15921e-38
-1.61932e-38
4.24814e-38
-1.09839e-38
2.99995e-38
9.6726e-39
-2.63887e-38
-1.74322e-38
5.51173e-38
3.06855e-39
-3.64487e-39
1.77679e-38
-1.13069e-39
7.58002e-39
-3.52598e-39
-1.50616e-39
6.25344e-39
-1.21703e-38
-2.73479e-39
1.81562e-38
-5.44811e-38
-3.19358e-38
1.15173e-37
6.34671e-38
-1.08164e-37
-6.31978e-38
2.21476e-37
5.15323e-40
9.15546e-38
-1.15453e-36
1.78655e-36
3.19002e-37
7.45398e-36
-1.6294e-38
2.01579e-37
1.00666e-35
2.57664e-37
-1.41126e-38
2.67295e-36
3.50545e-39
3.73137e-37
1.44128e-36
-4.31206e-37
9.9364e-39
1.17589e-37
4.57153e-37
5.77917e-38
1.10917e-37
5.17482e-39
4.8182e-36
4.32451e-37
2.68333e-38
-1.23827e-36
3.61263e-36
4.76191e-38
-1.71494e-40
2.41814e-37
9.26731e-37
-2.9225e-37
1.96334e-38
2.27569e-37
1.01796e-36
2.77217e-37
1.28258e-37
6.44469e-36
-4.63945e-37
1.53769e-37
-5.73535e-39
1.06465e-36
1.15726e-37
3.86661e-38
-4.27428e-39
1.17218e-37
2.98567e-37
3.89249e-36
-1.75231e-36
5.5872e-35
1.73983e-34
-7.64382e-36
-9.31744e-36
4.54426e-33
1.3784e-32
-1.76436e-37
1.72045e-34
1.28713e-36
1.45479e-37
3.95903e-36
-6.43802e-37
1.66056e-30
3.309e-29
-6.7776e-30
-4.11633e-35
2.17943e-28
2.51292e-36
1.48692e-34
-2.82698e-40
3.93497e-35
-6.23863e-39
1.1061e-38
8.20267e-39
-4.9243e-38
6.74357e-38
3.35263e-39
-1.55697e-38
2.8891e-38
4.6436e-40
-1.1133e-39
5.91261e-39
-3.6924e-40
2.297e-39
-1.6286e-39
-9.30674e-40
2.40565e-39
-6.01107e-39
-3.9394e-39
8.66817e-39
-2.51826e-38
2.64744e-38
3.05373e-38
1.06312e-37
2.54026e-39
2.10694e-38
-3.46062e-39
6.35011e-39
-2.99218e-38
7.20957e-38
1.76208e-37
0
1.03642e-33
1.45212e-33
-5.81125e-19
-6.14209e-15
2.44994e-13
1.11489e-14
1.33324e-14
-1.258e-19
-3.38468e-34
-9.72307e-34
-1.3763e-33
3.00072e-15
-1.0623e-18
2.00139e-14
1.63914e-14
-1.31569e-13
-2.70716e-34
8.47615e-19
1.92729e-19
5.7693e-18
1.13338e-18
3.24496e-35
3.84603e-35
-2.39841e-34
-5.78387e-37
2.18003e-24
1.81226e-24
1.64554e-23
-1.73243e-37
2.85288e-24
1.3819e-24
1.34001e-23
-1.8115e-37
1.59709e-24
1.09816e-24
9.62809e-24
-1.60655e-35
2.18009e-24
3.76615e-25
3.58149e-26
-2.2888e-40
-3.96847e-25
3.29996e-24
-1.59885e-26
-3.51456e-26
2.12476e-25
1.27087e-26
-1.83067e-40
1.41819e-24
7.3558e-27
4.08775e-26
1.32287e-17
-8.04673e-20
-1.06729e-17
4.7149e-19
5.57146e-16
-9.02409e-19
1.84927e-17
-9.97704e-17
3.56907e-16
-2.44411e-16
3.7332e-16
4.54235e-16
5.18112e-15
3.10609e-17
3.3358e-17
-1.39503e-15
2.33065e-13
9.76131e-15
1.35353e-15
-4.28067e-15
4.96681e-12
1.9168e-13
-6.61387e-14
1.33785e-13
2.61663e-12
-2.21854e-12
4.27595e-12
3.62816e-12
1.87573e-11
-2.18364e-12
1.11694e-12
3.97334e-14
1.26383e-10
8.26601e-12
1.01396e-11
-8.33048e-12
6.54605e-10
-5.77702e-12
-2.08129e-11
5.32977e-11
1.27287e-09
8.21964e-11
5.28911e-10
-1.46428e-10
9.30312e-10
-5.81533e-10
4.0628e-10
1.20328e-09
2.83869e-09
2.00825e-10
-6.63181e-10
8.291e-11
1.59241e-08
2.2726e-09
-2.34509e-09
-5.13795e-09
5.66214e-08
-8.01715e-09
-6.82667e-09
2.55154e-09
8.67048e-08
-4.07753e-08
7.28266e-08
-8.37286e-09
3.2489e-08
-1.10485e-07
1.28548e-07
8.01763e-08
5.60477e-08
-5.92924e-08
5.06083e-08
3.11489e-08
1.40707e-07
-8.16646e-08
1.25247e-07
-3.60916e-08
4.15652e-07
2.16703e-07
-3.3438e-07
5.04624e-08
4.17945e-07
4.09987e-08
-1.56922e-07
2.23345e-07
9.59209e-07
-4.64158e-07
-1.54374e-07
7.286e-07
3.04768e-06
-6.15831e-07
-2.46464e-07
-1.45001e-10
9.70605e-06
8.14498e-07
-2.55587e-07
-2.45495e-06
2.33877e-05
1.98708e-06
-5.44145e-06
-2.37898e-06
3.62844e-05
1.04841e-06
1.46472e-05
-4.31224e-06
3.13905e-05
-2.7111e-05
-3.93494e-06
4.91663e-05
5.61906e-05
1.01662e-06
-7.91087e-06
1.73942e-05
7.11525e-05
3.42871e-05
-2.65504e-05
6.21462e-06
0.000148989
8.81614e-05
-1.80496e-05
-9.38294e-05
0.000186107
9.67383e-05
-2.8938e-05
-3.43565e-05
8.27948e-05
-7.96671e-05
0.000107161
0.00011993
0.000144332
9.14668e-05
-4.71279e-05
-5.74897e-05
0.000465702
-8.95724e-05
7.80089e-06
-9.47138e-05
-1.88552e-06
4.05689e-05
-0.000100707
-0.000400356
-9.66047e-06
-0.000143262
0.000238268
-0.00036179
-0.000477134
0.000295548
-3.82659e-05
-8.7173e-05
-0.000570681
-0.000155341
-0.000105415
-0.000256185
3.12812e-05
-7.32588e-05
-7.86713e-05
-0.000258092
-3.65423e-06
-0.000341487
-0.00014459
-0.000154241
0.000131622
-0.000112419
-0.000108622
-0.000122315
0.000160089
-3.08345e-05
-5.60446e-05
2.08475e-05
-7.52644e-06
5.54862e-05
4.97331e-06
1.58606e-07
2.63461e-05
1.11747e-06
5.46687e-05
-7.04148e-06
-2.97444e-05
-8.43747e-07
0.000112527
4.97909e-05
-4.09274e-05
0.000114438
-1.41964e-05
0.000264128
-5.56797e-05
-0.000140558
0.00016617
0.000206472
6.06848e-05
0.000145748
-8.51431e-05
0.000261902
-7.26291e-05
-3.30348e-05
0.000129825
-8.87787e-05
0.000173594
-9.09395e-06
-0.000172201
2.55701e-05
4.23376e-05
-9.69719e-05
8.29471e-05
0.000239171
-0.000162885
-0.00015073
-5.23651e-05
0.000358265
4.8419e-05
-0.000123409
-7.72083e-05
0.000120315
-6.15529e-05
6.51102e-05
-0.000108844
-4.03114e-05
4.49581e-05
-2.19247e-05
-4.3495e-05
9.1973e-05
-1.86845e-05
-3.48522e-06
5.76671e-06
-7.09222e-06
-1.35484e-05
-1.20597e-05
1.4843e-05
-1.74015e-05
-9.15665e-06
-1.50723e-05
-4.92513e-06
1.34614e-05
-1.08946e-05
-3.1374e-05
7.84284e-06
-1.42889e-05
3.75978e-07
-4.66378e-07
-4.524e-06
-6.19922e-08
-3.56044e-06
2.3887e-06
-2.24686e-06
-2.15948e-06
-2.4034e-07
4.91017e-06
1.69801e-06
-2.02947e-06
6.28914e-07
1.1704e-06
8.59548e-06
2.36009e-06
-1.70755e-05
9.8429e-06
6.94446e-06
-3.6456e-07
4.68959e-06
5.6768e-07
-5.44072e-06
-4.63938e-06
1.62139e-05
-4.28343e-07
-1.15873e-05
-6.21372e-07
1.76121e-05
-7.15991e-06
2.62577e-05
-9.66267e-06
-8.53393e-06
-1.06201e-06
-1.01235e-06
-2.04869e-06
-3.06055e-06
4.51195e-06
3.78942e-06
3.20839e-06
-4.16506e-06
-9.49362e-07
-1.90867e-06
-9.29824e-06
5.65083e-06
-2.60511e-06
-3.98153e-06
-1.10796e-06
4.0144e-06
-1.00602e-06
-2.24903e-06
1.1747e-07
-1.95834e-06
-1.63319e-07
-3.57485e-07
-6.45453e-07
5.37774e-07
-6.2557e-07
-2.33245e-07
-3.49313e-07
2.05266e-08
2.13279e-07
-2.01799e-07
1.7382e-08
3.88042e-09
-9.67797e-08
-1.22308e-09
1.60263e-08
3.09638e-08
-3.89801e-08
1.90262e-07
2.65549e-08
-9.90982e-08
3.33953e-07
-3.61632e-07
7.61385e-07
1.48698e-07
-1.2406e-07
-8.07312e-08
4.51126e-07
-2.43068e-07
-1.16001e-06
1.92672e-07
-3.93797e-07
-4.79185e-07
1.64368e-07
-2.23237e-07
-4.82537e-07
-1.08945e-07
9.66747e-08
-1.71244e-07
-1.20066e-07
6.76561e-08
-4.13283e-08
-4.05263e-08
-5.53258e-09
1.14635e-08
-7.17831e-10
-2.53137e-08
2.06858e-08
-4.71791e-08
3.18343e-08
6.55473e-09
-5.10745e-08
8.79308e-09
-9.04927e-09
-6.92554e-08
-2.43055e-08
-2.0299e-08
-8.03765e-09
-1.81914e-08
-4.58735e-09
-1.33483e-10
-5.83183e-09
5.70653e-09
-3.62225e-09
-4.08133e-09
3.18002e-09
3.43657e-08
-3.92101e-09
-4.17004e-09
-4.67329e-09
-5.3199e-09
9.43707e-09
5.04515e-12
-5.27202e-09
-6.46901e-09
5.10174e-09
-5.23288e-09
-1.15845e-08
-2.91862e-09
-4.24663e-09
-5.38234e-09
-1.22806e-09
-1.11629e-09
-1.28181e-08
-5.56827e-09
9.86639e-09
-7.73722e-09
6.81775e-10
6.63207e-10
-2.12236e-09
-1.13671e-09
1.87714e-10
1.00357e-09
-9.35652e-10
-1.02642e-09
8.80395e-10
-9.64959e-10
-2.44672e-10
-2.75212e-10
-2.18351e-10
2.446e-10
-1.8299e-10
-3.32097e-10
3.39651e-11
-7.99814e-11
4.90681e-11
-8.77713e-12
-1.11568e-11
3.62449e-12
-2.44569e-12
9.99762e-12
-1.28549e-11
-1.12882e-11
1.31227e-11
4.77166e-11
-5.89003e-13
-2.58768e-12
5.53847e-11
-2.98015e-11
2.08893e-10
2.01437e-11
-4.50066e-11
2.8881e-12
1.52382e-10
4.31561e-11
-1.83462e-10
3.12702e-11
-3.76942e-11
-5.94522e-11
2.15208e-11
-2.10366e-11
-7.10287e-11
-5.99241e-11
6.82858e-11
-2.41427e-11
-6.57505e-12
1.06119e-11
-4.26456e-12
-3.06295e-12
-1.13341e-12
4.28952e-12
-7.65889e-13
-2.85609e-12
9.84516e-13
-2.35401e-12
-1.25667e-13
-3.68746e-13
-3.34838e-13
1.98147e-13
-4.84127e-14
-2.61671e-13
7.72788e-14
-1.39001e-14
1.42708e-14
-4.05657e-15
-5.7894e-16
-1.72896e-15
-2.45686e-15
4.99057e-16
-9.11483e-16
-1.8112e-16
6.52937e-16
7.67714e-14
-2.47147e-14
-3.64183e-16
4.96564e-14
-9.35869e-15
4.67112e-13
1.18765e-14
-9.8557e-14
-1.95383e-14
2.0462e-13
-3.08401e-15
-3.90841e-13
-5.93298e-14
-1.60445e-14
-9.31647e-14
-1.02503e-15
-2.58491e-14
-1.09476e-13
-9.02862e-14
1.14234e-13
-4.04613e-15
5.34822e-15
-1.95404e-15
-2.28409e-16
-8.97232e-19
-1.28213e-16
5.84235e-16
-2.49578e-17
-6.26936e-19
1.42146e-17
-7.61647e-18
-4.69753e-18
-6.0124e-17
-7.7606e-18
-3.06859e-17
-4.4074e-25
-1.51354e-19
-7.98812e-18
-3.53115e-42
-2.31126e-35
-1.16551e-25
-5.7644e-43
1.71592e-42
6.55203e-42
3.32671e-42
0
-4.8426e-36
-2.08248e-20
-4.18308e-18
-5.65456e-40
7.88463e-21
-7.33102e-19
3.32886e-41
1.69021e-40
0
2.73469e-37
-4.92608e-19
-4.77372e-19
7.13111e-18
1.01457e-18
-8.94886e-28
-8.20501e-18
2.40478e-18
-7.6929e-19
3.04376e-18
2.4659e-18
4.3215e-16
8.86759e-18
-3.47568e-17
-1.22891e-16
1.19814e-13
-7.26664e-16
-2.73511e-14
-1.19676e-15
6.87522e-13
1.20251e-13
-1.72204e-14
3.41229e-12
3.02227e-13
-1.59705e-14
2.20033e-12
-1.88052e-12
2.68424e-12
2.28566e-12
9.45714e-12
6.64868e-13
-7.59463e-13
-1.59378e-12
1.16888e-10
2.81278e-12
-2.48216e-11
-2.70453e-12
4.27526e-10
5.76118e-11
-4.7696e-11
1.19796e-09
7.18671e-11
-1.73167e-11
6.51376e-10
-6.93064e-10
9.51829e-10
7.87908e-10
1.65406e-09
4.94733e-11
1.47719e-11
-1.75645e-10
7.11583e-09
2.79071e-11
-2.22788e-09
1.95576e-10
1.44746e-08
2.18928e-09
-2.70864e-09
2.20437e-08
2.57749e-09
-2.71507e-09
1.29454e-08
-1.31308e-08
1.26067e-08
1.66492e-08
4.10735e-08
1.15045e-08
-1.28002e-08
-6.74277e-10
3.45362e-07
3.85097e-08
-8.0029e-08
-7.02802e-08
1.41406e-06
1.19157e-07
-2.96697e-07
3.66331e-06
3.0327e-07
-6.3371e-07
2.58671e-06
-1.4417e-06
2.14507e-06
2.26009e-06
6.13096e-06
1.54502e-06
-8.6717e-07
-1.50031e-06
1.46327e-05
6.15948e-06
-4.78402e-06
-3.70673e-06
3.85569e-05
1.66599e-05
-2.00876e-05
-4.28293e-06
5.49182e-05
4.19444e-05
-1.30133e-05
6.0447e-05
4.66803e-05
9.94328e-06
3.09996e-05
1.64464e-05
6.41924e-06
-5.3837e-07
1.2652e-05
9.53975e-05
-4.2637e-05
-3.57494e-05
0.000114559
0.000211872
-0.000201072
-9.14695e-05
0.000213077
0.00020302
-0.000100505
0.000432302
0.000118532
-1.74865e-05
0.00020182
-0.000114387
-0.000495104
0.000150756
-0.000174226
-0.000151238
-8.375e-05
4.88513e-05
-0.000158194
-0.000159748
-3.11018e-06
1.88908e-05
3.55435e-06
-1.95025e-05
1.5748e-05
4.59968e-06
-9.44074e-05
0.0001297
1.756e-05
-4.99529e-05
0.000436181
0.00016397
-0.00033144
-9.51837e-05
0.000678398
0.000168998
-0.000155487
0.000212139
-0.000181696
-0.000395779
7.69715e-05
-3.10364e-05
-0.000154316
5.32818e-05
-1.42456e-05
0.000317115
-0.000115118
-0.000591523
0.000343733
0.000425267
8.24004e-05
-3.38214e-05
0.000127715
-2.43896e-05
0.000124061
-0.000570584
-4.51262e-05
8.01432e-05
-0.00021765
3.05018e-06
-8.19001e-05
-0.000749112
-0.000618613
0.000152875
-9.55601e-05
-0.000365029
0.000149625
-0.00012549
-0.000272643
-0.000149055
-0.000167137
-0.000210651
0.000247634
-8.11901e-05
-0.000253565
-5.49289e-05
0.000109336
-0.000411868
-3.83782e-05
-0.000228012
-0.000139198
0.000211788
-7.31238e-05
-0.000310487
-5.3744e-05
-9.47085e-05
-0.000349709
-8.6559e-05
0.000171281
-8.51074e-05
-0.000102609
-5.04214e-05
0.000243666
-7.52207e-05
4.85505e-06
9.20664e-05
-6.3161e-05
-5.10986e-05
4.16987e-06
6.073e-05
-1.73368e-05
-3.34286e-05
3.31211e-05
1.09166e-06
2.01031e-05
9.22637e-06
9.32982e-06
6.38345e-06
-2.13654e-05
1.86105e-06
2.81049e-05
-7.07372e-06
-3.55174e-05
-1.30502e-05
2.31275e-05
2.35315e-05
-4.2879e-05
-1.01164e-05
3.73236e-05
9.98422e-07
-6.02959e-05
6.20286e-05
2.85001e-05
-3.03624e-05
-3.2381e-06
8.77942e-06
-7.07278e-05
-4.76663e-05
0.000127701
5.40481e-05
-0.000118507
0.000120933
3.62497e-05
-9.49525e-05
-6.06631e-05
-0.000172264
0.000104608
0.00016153
-5.08574e-05
-3.71163e-05
-6.86016e-05
3.81717e-05
-7.09151e-06
-4.34885e-05
1.41387e-06
1.25013e-05
7.85458e-06
-8.82968e-06
-2.58688e-05
6.3256e-07
-5.82209e-06
2.67204e-06
4.84046e-06
-4.71868e-06
4.88324e-06
-1.67805e-05
7.33279e-06
3.5793e-06
-1.53923e-05
-5.03514e-07
-4.30546e-06
-4.30416e-06
7.76441e-06
-8.42834e-07
9.01224e-07
-4.47987e-07
-8.14807e-08
3.30264e-08
-1.95774e-07
-1.08466e-07
-3.60932e-07
-1.01177e-07
3.48105e-09
-6.78522e-09
-5.63075e-08
-5.55831e-08
2.02984e-08
4.87689e-08
-7.04025e-08
-6.55658e-10
-7.86339e-08
-8.83843e-07
3.23032e-07
7.76874e-08
1.00631e-07
-2.53442e-06
2.83581e-07
2.80676e-08
-4.50773e-06
4.87936e-07
-1.06708e-07
-3.10695e-06
4.14393e-06
-3.75199e-06
-4.35008e-06
-9.55423e-06
4.84797e-06
-1.00268e-06
-2.12779e-06
1.01486e-05
-1.42692e-05
1.07635e-05
9.50198e-06
-1.7477e-06
-5.57207e-06
1.14074e-05
-1.03282e-05
-5.55861e-06
4.78295e-07
4.01924e-06
-1.60333e-05
-7.57736e-06
1.47892e-05
-4.31362e-06
-9.4971e-06
5.47843e-05
6.59494e-05
-6.0015e-05
-4.68234e-05
0.000215259
-7.24392e-05
0.000342058
0.000391807
-0.000225142
-2.50576e-05
0.000405219
0.000381272
-3.54302e-05
-2.19274e-05
0.000282217
-0.000257447
0.000357646
0.000231253
-2.35824e-05
0.000145575
0.00012112
0.000103576
1.70201e-05
-0.000208151
0.00010059
4.10557e-05
0.000197531
-3.13293e-05
0.000221067
0.00029337
-6.45094e-05
0.000330023
-0.000114152
0.000481861
0.000314385
-0.000248554
-4.41475e-05
0.000735436
0.000220328
-8.43759e-05
0.000936733
0.000338875
-0.000183685
0.00110597
0.000434133
-0.000236075
0.000643781
-0.000361769
0.000521533
0.000376049
0.000173321
-0.00030511
-0.00035113
-0.000805061
0.000132618
-0.000497589
-0.00039763
-0.000247644
0.000170172
-0.000217357
-0.000429139
0.000176398
-0.000195153
0.000103172
8.00144e-05
0.000204511
-9.91078e-06
-0.000739118
0.000500424
9.65594e-05
-4.84142e-06
3.11229e-07
0.000107365
3.22593e-06
-1.67752e-05
0.000760812
-4.8971e-05
-0.000384456
-1.08161e-05
-0.00050842
-0.00113408
-6.74107e-06
-0.000240496
-0.00106881
-3.71856e-06
1.43672e-05
-0.000850134
-4.01936e-06
0.000108954
-0.000412933
-0.000227686
-6.06668e-06
-2.1633e-05
0.000146642
-0.000608757
-0.000105905
0.000269167
-0.000380154
0.000540556
-0.000358096
-0.00072247
0.000164802
-0.000528676
-8.6189e-05
-0.000247876
0.000264269
-5.46393e-05
-0.000231732
-7.41876e-05
0.000211118
-4.63798e-05
-1.67847e-05
-7.87126e-05
1.43455e-05
0.000155859
-9.53297e-06
-5.67212e-05
4.88578e-06
7.05454e-05
-1.66134e-05
-0.000127483
2.32408e-05
4.56261e-05
-9.2107e-05
-0.000146055
-2.53206e-05
-0.000111567
-3.84822e-05
-5.51824e-05
3.9872e-05
-1.13779e-05
-1.85412e-05
-2.05664e-05
1.74111e-05
-8.99845e-06
-3.01934e-06
7.82134e-06
-1.78537e-05
-8.64352e-06
1.49791e-05
-7.56758e-06
-2.30313e-06
1.60392e-05
-6.35342e-06
-4.98528e-06
-2.67381e-06
1.39177e-05
4.59369e-06
-1.10733e-06
-2.32879e-07
7.57615e-07
3.10161e-06
5.31719e-07
1.54894e-06
8.63254e-07
3.39638e-07
3.90109e-07
5.57678e-07
-4.19067e-08
2.01483e-07
1.55005e-07
7.54139e-08
1.41121e-06
-6.92303e-09
3.09615e-06
1.55634e-06
-1.24946e-06
-5.4174e-07
4.40962e-06
6.37461e-07
1.09927e-05
4.75618e-06
-5.78998e-06
3.24261e-07
9.30047e-06
-8.14426e-07
2.60028e-06
5.6598e-06
1.89611e-05
6.78158e-06
-6.52432e-06
-3.32524e-06
5.51302e-05
1.62094e-05
-4.43082e-06
-2.6094e-05
0.000102525
2.97533e-05
-4.3316e-06
5.59169e-05
1.49422e-05
-1.04861e-05
4.98503e-05
-1.73393e-05
2.7442e-05
2.88961e-05
-1.06262e-05
-2.79785e-06
1.52113e-05
1.01988e-05
-4.82155e-06
1.91809e-05
7.28219e-05
-2.426e-05
0.000120717
2.24544e-05
8.11177e-05
8.66656e-05
-8.11714e-05
7.38386e-05
0.000361257
9.45941e-05
-3.38625e-05
0.000130057
8.12925e-05
0.00029551
-1.99292e-06
-0.000262677
0.000217213
-1.44788e-06
4.08661e-05
0.000229553
0.000108054
-0.000312875
5.55648e-05
0.000840246
-0.000418936
-1.8263e-05
0.00105405
-0.000116433
0.00010787
0.00113765
3.42464e-05
5.36708e-06
-6.7279e-06
-0.000242293
-0.0001525
-0.000764454
-0.000512621
-0.000806353
-0.00049658
0.000188164
-0.000260065
-0.00021572
-0.000407939
4.34001e-06
-0.000391227
9.9202e-06
-0.00010441
-2.3506e-05
-0.000146098
-0.000364795
1.75769e-05
0.000525528
-0.000622785
0.000273634
-0.000724484
-0.000362623
0.000169274
0.000138113
-0.000366802
-0.000270288
8.39086e-05
-0.000266772
0.000214348
1.07782e-06
-0.000207955
-9.71624e-05
0.00013078
-0.000208481
0.000133922
-0.00015451
1.01865e-06
0.000154898
-5.68028e-05
-6.17983e-05
3.33575e-07
9.56243e-06
-1.72136e-05
-8.70876e-06
-1.64165e-05
3.54729e-06
-1.12904e-06
-6.64615e-08
-3.69898e-05
1.27647e-05
3.2925e-05
7.06382e-06
1.37652e-05
-2.41048e-05
5.78044e-06
1.44949e-05
-1.72015e-06
-1.60675e-05
5.09544e-06
-9.51382e-06
1.35955e-05
5.6005e-07
-3.81627e-06
6.16963e-06
-1.44021e-06
-2.93167e-06
-4.60059e-07
1.66294e-06
-6.0624e-07
3.58456e-07
1.15622e-06
3.14369e-07
7.71842e-07
-1.25665e-06
-7.50492e-07
3.41425e-07
5.85357e-07
-3.37455e-07
-1.70984e-06
-4.07215e-07
-5.89765e-07
-2.36079e-07
2.25667e-07
-3.01761e-07
-6.22047e-07
-4.38552e-07
-3.78494e-07
-5.51876e-07
2.07753e-07
4.7577e-07
4.78431e-08
-9.5814e-08
-3.6297e-07
3.18237e-08
3.98073e-07
-4.63357e-08
-8.4906e-08
1.22431e-08
2.24727e-08
-5.94309e-08
-8.72281e-09
7.54707e-08
1.77514e-08
1.90889e-08
-2.32893e-08
6.08028e-08
1.17197e-08
-8.09843e-09
-8.80099e-09
7.07663e-09
3.55973e-10
-1.14522e-08
3.68959e-09
-5.48407e-09
7.37837e-10
-1.19476e-10
4.51412e-09
-5.45603e-09
-8.13156e-09
6.86935e-09
7.31709e-10
-8.15578e-10
1.8939e-08
-1.022e-09
-5.69333e-09
-9.19233e-10
4.17384e-08
-2.44739e-09
2.09345e-08
2.41146e-08
9.5694e-09
3.89191e-08
-1.25051e-08
-3.74716e-08
6.4628e-09
8.86447e-08
4.41162e-08
-1.14425e-08
9.61333e-08
6.22823e-08
-7.89693e-08
-1.78749e-08
-3.64579e-08
2.29953e-07
2.92935e-08
-3.33018e-08
-5.27914e-09
1.86299e-11
8.78403e-09
-9.02573e-09
1.0466e-09
-1.04181e-09
-8.00543e-09
-8.29858e-11
2.89213e-10
-2.51736e-09
-5.61985e-10
-5.95054e-10
-9.42518e-11
6.92177e-10
-1.9879e-09
-3.49009e-09
3.77515e-10
-1.02289e-09
-1.6518e-10
1.48793e-10
-1.49e-10
-1.70164e-10
-6.32447e-11
-3.76441e-11
-2.4471e-10
3.82444e-11
-5.45827e-11
1.27039e-11
-6.86587e-12
5.38678e-11
-5.61071e-11
-7.34011e-11
7.07188e-11
1.12897e-11
-2.03602e-11
3.71708e-10
3.6056e-11
-9.41804e-11
-3.36794e-11
1.10548e-09
1.05766e-11
-3.50046e-11
5.11962e-10
-5.04262e-10
7.72894e-10
7.37127e-10
1.28963e-09
-1.58528e-10
-4.75959e-11
2.21933e-11
-1.66128e-10
4.98354e-09
-4.13685e-10
-1.14298e-09
1.12914e-10
1.42167e-08
6.43279e-11
7.45819e-10
2.90713e-09
-1.17466e-09
1.10659e-08
4.03721e-09
-1.47707e-08
1.92759e-08
1.04292e-08
-1.22757e-08
1.02019e-07
1.01568e-08
-1.56967e-07
2.27983e-08
9.79667e-08
2.36253e-08
1.60241e-07
1.02283e-07
-1.67179e-07
7.44506e-08
-7.91159e-09
5.29937e-08
8.29715e-08
3.1165e-08
-5.9313e-09
3.30015e-08
8.29594e-08
-7.6641e-08
7.12599e-08
-1.16564e-07
-1.00942e-07
1.87458e-07
-6.78589e-08
6.78625e-08
2.78145e-07
9.93802e-09
-4.37917e-07
5.48301e-07
3.54049e-08
4.44047e-07
-1.17927e-06
1.09365e-07
3.33514e-07
-9.60541e-07
9.98426e-07
-1.61779e-06
-1.4287e-06
1.19604e-06
-3.79467e-07
-2.7789e-06
4.82797e-06
-9.92962e-07
1.07174e-05
-1.16243e-06
-2.63728e-06
6.2824e-06
4.44707e-06
-4.3254e-06
-2.40478e-06
1.07007e-05
6.9437e-06
4.8613e-06
9.21611e-06
1.79032e-05
2.6781e-07
-3.42416e-05
4.36519e-05
4.64769e-07
-9.61067e-06
6.50684e-05
1.6505e-06
-1.8902e-05
-9.75052e-06
0.000157974
-5.50181e-05
9.88597e-06
-8.26278e-05
0.000155855
8.60141e-05
-0.0001183
-8.21596e-05
7.40911e-05
-0.000213678
-3.33243e-05
0.000249319
-0.000232659
-7.80388e-05
-4.56528e-05
0.000514577
-0.000315245
-5.00736e-05
0.000726187
-0.00022465
-9.26691e-05
0.00020993
0.000195372
0.000489272
-0.000110418
-9.59573e-06
-0.000354991
8.45469e-05
0.000436164
0.000927895
-0.00016522
-0.000730393
-0.000185158
-0.00020785
-0.000240081
0.000444727
-0.00086494
-0.000204524
-0.000185662
-0.000622691
-0.000134047
-8.0245e-05
0.000156487
-0.000365788
-0.000102684
-0.000127491
-0.000475427
-8.4872e-05