/*--------------------------------*- C++ -*----------------------------------*\
  =========                 |
  \\      /  F ield         | OpenFOAM: The Open Source CFD Toolbox
   \\    /   O peration     | Website:  https://openfoam.org
    \\  /    A nd           | Version:  7
     \\/     M anipulation  |
\*---------------------------------------------------------------------------*/
FoamFile
{
    version     2.0;
    format      ascii;
    class       volScalarField;
    location    "18.9";
    object      p;
}
// * * * * * * * * * * * * * * * * * * * * * * * * * * * * * * * * * * * * * //

dimensions      [1 -1 -2 0 0 0 0];

internalField   nonuniform List<scalar> 
15191
(
34.1742
-41.3253
-92.5793
-116.693
-124.45
-130.363
-134.242
-136.169
-137.367
-138.428
-139.815
-140.39
-141.37
-143.154
-145.186
-146.592
-146.717
-146.74
-146.77
-146.816
-146.853
-146.876
-146.74
-146.648
-146.658
-146.581
-146.702
-146.696
-146.919
-146.891
-146.92
-147.006
-147.014
-146.982
-146.975
-146.951
-146.987
-146.942
-146.939
-146.917
-146.93
-146.918
-146.939
-146.973
-147.055
-147.094
-147.115
-147.117
-147.117
-147.135
-147.05
-146.96
-146.94
-146.939
-146.987
-146.984
-146.996
-147.011
-147.067
-147.132
-147.147
-147.147
-147.152
-147.126
-147.11
-147.109
-147.057
-147.054
-147.025
-147.051
-146.892
-146.964
-146.882
-146.81
-146.789
-146.695
-146.787
-146.764
-146.761
-146.736
-146.926
-146.901
-146.931
-147.01
-147.018
-147.017
-147.052
-147.071
-146.994
-146.92
-146.85
-146.794
-146.86
-146.792
-146.852
-147.009
-146.955
-146.959
-146.918
-146.87
-146.869
-146.934
-146.898
-146.887
-146.958
-146.968
-146.936
-146.883
-146.852
-146.869
-146.861
-146.831
-146.914
-146.781
-146.599
-146.725
-146.863
-146.997
-147.014
-147.057
-147.11
-147.081
-147.083
-147.163
-147.213
-147.161
-147.108
-147.141
-147.192
-147.296
-147.228
-147.157
-147.176
-147.301
-147.323
-147.349
-147.32
-147.238
-147.275
-147.36
-147.295
-147.336
-147.442
-147.442
-147.475
-147.426
-147.463
-147.539
-147.548
-147.489
-147.472
-147.57
-147.571
-147.615
-147.508
-147.506
-147.611
-147.6
-147.502
-147.453
-147.512
-147.589
-147.556
-147.46
-147.503
-147.604
-147.644
-147.573
-147.45
-147.414
-147.527
-147.579
-147.604
-146.941
-146.945
-146.937
-146.988
-146.936
-146.904
-146.966
-146.957
-146.935
-146.867
-146.803
-146.795
-146.774
-146.74
-146.815
-146.625
-146.361
-146.44
-146.578
-146.808
-146.829
-146.869
-146.883
-146.86
-146.869
-146.908
-146.991
-146.928
-146.862
-146.872
-146.841
-146.989
-146.898
-146.631
-146.749
-146.861
-146.947
-146.923
-146.922
-146.746
-146.783
-146.882
-146.942
-146.777
-146.826
-146.903
-146.896
-146.761
-146.675
-146.663
-146.5
-146.696
-146.849
-146.914
-146.84
-146.688
-146.68
-146.823
-146.894
-146.839
-146.852
-146.943
-146.89
-146.86
-146.955
-146.962
-146.917
-146.892
-146.992
-146.966
-146.922
-146.819
-147.012
-147.119
-147.076
-147.043
-147.079
-147.029
-147.002
-147.06
-146.983
-147.039
-146.986
-146.872
-146.973
-147.073
-147.132
-147.154
-147.128
-147.105
-147.128
-147.145
-147.129
-147.114
-147.131
-147.134
-147.099
-147.087
-147.061
-147.071
-147.003
-146.97
-146.985
-147.011
-147.042
-146.955
-146.96
-147.049
-147.026
-146.992
-147.055
-146.997
-146.97
-146.932
-146.966
-147.056
-147.145
-147.187
-147.142
-147.062
-147.118
-147.152
-146.814
-146.301
-146.554
-146.842
-146.615
-146.352
-146.14
-145.876
-145.665
-145.747
-145.862
-145.597
-145.353
-145.236
-145.257
-145.299
-145.246
-145.128
-144.993
-144.762
-144.382
-143.938
-143.561
-143.087
-142.477
-141.749
-140.951
-140.319
-139.6
-138.667
-137.47
-136.214
-134.938
-133.651
-130.378
-125.69
-118.373
-106.782
-96.2799
-53.694
17.4699
141.7
255.474
421.839
772.012
1311.85
1409.12
1032.15
1427.23
1351.91
792.669
729.878
733.607
386.466
162.633
136.156
18.5982
-49.2176
-79.5797
-49.8347
23.415
11.2299
84.6249
184.129
398.26
390.3
181.153
179.019
163.34
23.1976
-53.2271
-56.8639
-96.9688
-100.243
-99.9557
-116.332
-117.951
-126.044
-130.174
-132.206
-129.67
-125.084
-125.988
-120.109
-114.979
-115.277
-114.959
-115.868
-125.385
-130.225
-130.475
-133.757
-134.04
-134.045
-135.847
-136.12
-137.317
-138.367
-138.989
-138.176
-137.154
-136.892
-135.669
-135.543
-136.828
-137.527
-138.295
-139.298
-139.552
-139.684
-140.546
-140.861
-141.593
-142.254
-142.61
-142.043
-141.374
-141.129
-140.404
-140.194
-140.973
-141.519
-142.065
-142.757
-142.982
-143.092
-143.655
-143.877
-144.272
-144.622
-144.783
-144.489
-144.137
-143.98
-143.536
-143.368
-143.868
-144.205
-144.503
-144.846
-144.953
-144.998
-145.156
-145.218
-145.255
-145.2
-145.176
-145.064
-145.182
-145.136
-145.099
-145.056
-145.114
-145.117
-145.117
-145.157
-145.145
-145.196
-145.244
-145.454
-145.723
-146.117
-146.16
-145.79
-145.365
-145.074
-145.477
-145.505
-145.06
-145.56
-145.252
-145.253
-145.162
-145.104
-145.029
-144.857
-144.662
-144.277
-143.842
-143.31
-142.876
-142.41
-141.698
-140.936
-140.139
-139.53
-138.933
-137.95
-136.872
-135.609
-134.692
-133.514
-130.544
-125.674
-116
-99.0102
-77.2608
-45.1978
28.0509
168.568
394.281
748.502
1344.86
804.404
754.174
430.448
268.502
441.735
409.836
797.883
1334
1348.2
856.957
597.222
876.491
1375.94
1361.07
1375.17
1340.78
800.346
819.003
464.784
423.129
382.453
159.943
169.143
151.117
156.535
22.7001
-51.4543
-95.1926
-98.0286
-114.667
-121.729
-113.408
-114.488
-96.4622
-56.0152
-25.6408
33.2361
29.7827
29.6587
26.0714
-53.2419
-94.7559
-114.587
-125.383
-126.315
-126.178
-130.852
-133.882
-135.384
-135.529
-136.719
-137.257
-136.706
-136.518
-135.231
-133.829
-132.849
-129.742
-125.524
-125.255
-116.635
-109.736
-92.7158
-52.3174
19.5194
19.9915
153.519
276.719
165.544
38.5028
-10.4692
52.9351
192.926
423.663
407.653
801.898
1351.55
2040.24
2576.04
3228.21
3106.82
2246.62
2095.5
1470.5
1143.16
1606.9
1540.52
2224
3093.85
3095.42
2216.84
1493.93
1026.55
860.113
1097.78
745.895
769.57
398.388
174.654
181.552
39.479
-24.6798
-46.4587
-51.8619
-50.3723
-94.0729
-113.078
-113.187
-122.048
-126.536
-130.134
-130.257
-133.166
-134.046
-135.114
-135.761
-134.738
-134.874
-133.312
-133.469
-131.847
-129.517
-124.742
-113.836
-92.8935
-92.0528
-68.0122
-74.3012
-35.7306
33.9649
31.8546
170.024
395.597
405.08
662.541
662.045
1025.88
1492.92
2214.63
3091.13
3083.11
3089.94
2236.94
2217.94
1540.29
1096.36
858.926
743.85
392.999
403.427
172.514
173.779
31.1175
-40.328
-40.3971
-80.2776
-89.0584
-95.1109
-113.335
-112.993
-124.332
-129.764
-132.803
-133.159
-134.186
-135.036
-135.097
-136.343
-136.162
-136.343
-136.55
-137.558
-137.575
-137.87
-137.906
-138.904
-139.769
-140.025
-140.743
-141.156
-140.587
-140.573
-139.78
-139.166
-138.547
-138.731
-138.613
-138.664
-139.634
-140.499
-141.368
-141.577
-141.682
-142.398
-143.011
-143.212
-143.69
-143.931
-143.55
-143.537
-142.978
-142.544
-142.065
-141.366
-141.296
-140.544
-140.009
-139.384
-138.592
-138.523
-137.602
-136.947
-137.325
-137.88
-137.3
-137.254
-136.36
-136.191
-135.052
-134.097
-132.753
-129.56
-124.384
-124.84
-114.553
-102.846
-103.837
-80.6216
-80.7092
-40.8552
30.4969
30.3063
167.7
172.687
395.373
765.598
1140.24
1601.41
1462.29
1339.76
2025.1
2063.89
1326.66
792.16
796.553
404.202
179.024
37.3531
31.9944
-37.0756
-41.3584
-81.4997
-103.368
-104.274
-116.157
-116.067
-125.297
-129.731
-129.746
-132.658
-134.118
-134.812
-135.213
-136.14
-137.209
-137.223
-138.174
-138.134
-138.292
-138.502
-139.305
-139.423
-140.213
-140.421
-141.088
-141.432
-140.908
-140.9
-140.128
-140.057
-139.286
-138.685
-139.11
-139.536
-138.925
-138.954
-138.176
-138.117
-137.211
-136.18
-135.223
-134.032
-132.52
-132.506
-129.829
-125.441
-125.026
-114.903
-113.663
-95.8082
-75.7185
-90.0167
-86.0758
-85.173
-84.9627
-85.4395
-92.0215
-113.016
-124.172
-129.486
-132.869
-134.5
-134.562
-135.916
-137.07
-138.073
-138.95
-139.704
-140.228
-139.597
-139.879
-140.036
-140.801
-140.855
-141.598
-141.554
-141.751
-141.947
-142.027
-142.7
-142.868
-143.38
-143.642
-143.253
-143.258
-142.637
-142.559
-142.067
-142.39
-142.731
-142.238
-142.292
-141.585
-141.555
-140.782
-140.806
-140.213
-139.563
-138.895
-138.867
-138.115
-137.203
-136.192
-135.259
-134.086
-134.17
-132.777
-129.85
-129.691
-124.613
-124.696
-113.54
-93.0347
-69.197
-26.3022
-47.9947
-53.166
-12.3433
50.2069
190.392
418.15
458.534
809.101
1343.17
2069.7
2100.63
1360.41
865.503
589.167
416.99
271.892
162.52
35.9432
17.1889
149.637
155.406
375.679
400.134
783.169
1316.88
1322.51
787.711
431.076
259.522
145.276
163.307
30.0649
16.5864
-54.3132
-52.3753
-95.3733
-93.8129
-114.399
-125.422
-129.935
-130.068
-132.994
-132.91
-134.187
-134.887
-135.294
-136.183
-137.209
-138.134
-138.928
-139.564
-139.55
-140.181
-140.784
-141.542
-141.554
-142.237
-142.272
-142.895
-142.878
-143.028
-143.175
-143.211
-143.798
-143.734
-143.866
-144.004
-144.032
-144.187
-144.253
-144.657
-144.906
-144.991
-145.091
-145.167
-145.024
-145.076
-144.864
-144.647
-144.424
-144.527
-144.401
-144.379
-144.744
-144.974
-145.185
-145.23
-145.21
-145.434
-145.675
-145.495
-146.012
-146.158
-145.994
-145.966
-145.921
-146.034
-145.672
-145.781
-145.993
-146.102
-146.031
-146.303
-146.562
-146.409
-146.222
-146.128
-145.571
-145.713
-145.952
-146.112
-146.075
-145.898
-145.602
-145.605
-145.642
-145.682
-145.944
-145.949
-145.463
-145.708
-145.588
-145.587
-145.389
-145.376
-145.362
-145.415
-145.364
-145.256
-145.152
-144.929
-144.593
-144.31
-143.935
-143.468
-142.828
-142.133
-141.55
-140.92
-140.045
-138.991
-137.842
-137.029
-135.869
-134.183
-130.656
-126.184
-122.145
-114.691
-97.2262
-56.5598
6.84434
66.8413
172.762
386.114
744.807
1292.27
764.932
418.776
409.868
387.455
153.166
19.769
3.81318
-58.5705
-94.1926
-94.2232
-97.181
-115.503
-125.44
-126.367
-130.619
-133.639
-133.571
-133.761
-135.905
-137.313
-137.813
-138.83
-139.808
-139.625
-139.767
-140.78
-141.667
-142.014
-142.685
-143.271
-143.116
-143.176
-143.795
-144.272
-144.564
-144.868
-145.094
-144.948
-144.978
-145.143
-145.297
-145.329
-145.3
-145.234
-145.353
-145.321
-145.623
-145.854
-146.174
-145.922
-145.717
-145.779
-145.888
-145.657
-145.459
-145.561
-145.486
-145.502
-145.56
-145.492
-145.379
-145.288
-145.072
-144.755
-144.477
-144.174
-143.714
-143.098
-142.405
-141.8
-141.185
-140.334
-139.308
-138.459
-137.659
-136.37
-134.591
-131.156
-128.314
-124.68
-116.372
-98.8373
-64.9542
-27.2979
24.0751
153.741
365.685
721.702
1336.84
748.503
391.303
152.84
22.6141
-57.4375
-97.3695
-96.1713
-115.856
-125.651
-129.842
-130.005
-133.589
-135.628
-137.06
-138.221
-138.389
-139.505
-140.505
-141.36
-142.103
-142.207
-142.93
-143.582
-144.076
-144.495
-144.535
-144.835
-145.054
-145.141
-145.031
-145.238
-145.234
-145.494
-146.123
-146.111
-146.391
-146.251
-146.026
-145.853
-146.283
-146.334
-146.067
-146.236
-146.094
-145.771
-145.581
-145.725
-145.658
-145.662
-145.641
-145.624
-145.513
-145.347
-145.173
-144.899
-144.548
-144.219
-143.872
-143.327
-142.688
-142.118
-141.484
-140.613
-139.594
-138.694
-137.847
-136.428
-134.759
-131.549
-129.962
-125.312
-117.5
-100.194
-85.556
-49.2582
13.412
140.371
350.482
1012.86
267.104
-14.5263
-103.999
-125.762
-134.988
-136.86
-139.036
-140.898
-142.208
-143.542
-144.532
-145.508
-146.291
-146.994
-146.948
-147.022
-146.964
-147.062
-146.999
-147.058
-147.115
-147.127
-147.145
-147.101
-147.146
-146.917
-146.59
-146.846
-147.087
-147.051
-147.129
-147.087
-147.074
-145.716
-145.525
-145.296
-145.072
-144.809
-144.464
-144.045
-143.635
-142.898
-142.523
-141.778
-140.714
-140.054
-139.016
-137.694
-135.929
-134.074
-130.747
-126.038
-117.394
-109.431
-94.0998
-55.4195
1.12259
1029.64
273.39
-13.963
-104.049
-126.827
-133.629
-136.561
-138.795
-140.55
-141.286
-141.922
-142.732
-143.235
-143.849
-144.245
-144.69
-144.973
-145.192
-145.211
-145.072
-144.989
-144.747
-144.409
-144.375
-144.074
-144.334
-144.682
-144.761
-145.017
-145.217
-145.197
-145.415
-145.45
-145.395
-145.101
-145.364
-145.551
-145.73
-146.168
-145.985
-146.431
-146.296
-146.206
-146.304
-145.902
-145.821
-145.839
-145.942
-146.012
-145.612
-145.826
-145.488
-145.094
-144.971
-144.855
-144.949
-145.012
-145.121
-145.27
-145.518
-145.955
-145.766
-145.458
-145.087
-145.36
-145.568
-145.841
-146.243
-146.474
-146.887
-146.869
-146.623
-146.763
-146.557
-146.714
-146.877
-146.666
-146.48
-146.211
-146.038
-146.122
-146.255
-146.049
-145.796
-145.677
-145.74
-145.826
-145.81
-145.752
-145.715
-145.615
-145.458
-145.265
-145.035
-144.722
-144.309
-143.912
-143.491
-142.906
-142.152
-141.551
-140.852
-139.858
-138.659
-137.697
-136.528
-135.029
-131.747
-129.921
-125.645
-118.157
-102.955
-79.7734
-49.3017
23.0824
143.025
324.329
722.031
371.251
151.426
21.2672
-56.8355
-97.2443
-104.031
-117.103
-125.379
-125.537
-125.453
-131.167
-131.386
-134.745
-136.39
-137.723
-137.664
-137.866
-139.164
-139.408
-140.461
-141.352
-141.176
-141.325
-142.246
-142.587
-143.247
-143.863
-144.281
-144.453
-144.815
-145.162
-145.348
-145.443
-145.547
-145.622
-145.509
-145.486
-145.559
-145.608
-145.794
-145.727
-145.927
-146.284
-146.221
-146.189
-146.068
-146.152
-146.177
-146.189
-146.384
-146.393
-146.422
-146.653
-146.371
-146.145
-145.905
-146.15
-146.007
-146.017
-145.931
-145.865
-145.868
-145.855
-145.838
-145.89
-145.785
-145.599
-145.498
-145.306
-145.034
-144.781
-144.476
-144.025
-143.561
-143.108
-142.4
-141.583
-140.862
-140.056
-138.908
-137.598
-136.456
-134.937
-131.357
-126.574
-122.581
-115.983
-101.118
-59.8332
-26.7253
34.9677
142.868
341.391
366.985
153.254
24.6008
-52.6979
-61.0901
-100.089
-117.39
-125.14
-126.607
-131.388
-135.004
-136.82
-137.351
-138.728
-140.032
-141.037
-141.396
-142.239
-143.087
-143.656
-143.907
-144.423
-144.83
-144.959
-145.269
-145.504
-145.671
-145.563
-145.613
-145.764
-145.814
-145.899
-146.006
-145.924
-145.887
-145.826
-145.688
-145.72
-145.485
-145.18
-145.076
-144.723
-144.243
-144.089
-143.549
-142.972
-142.59
-141.733
-140.766
-140.264
-139.104
-137.699
-135.742
-135.34
-131.318
-126.018
-117.465
-115.199
-96.8056
-54.6868
4.5013
28.1713
145.781
358.913
364.159
157.676
32.466
20.7798
-51.3306
-97.5684
-115.657
-115.886
-125.576
-131.248
-135.143
-135.1
-137.333
-138.858
-140.161
-140.372
-141.44
-142.326
-143.125
-143.314
-143.272
-143.912
-144.451
-144.617
-144.536
-144.943
-145.259
-145.377
-145.31
-145.571
-145.767
-145.868
-145.94
-145.821
-145.586
-145.797
-145.902
-145.974
-145.946
-145.986
-145.952
-146.035
-145.964
-145.971
-145.925
-145.916
-146.012
-146.131
-146.014
-146.38
-123.876
-115.883
-101.929
-79.2525
-45.5861
20.7942
121.547
1004.69
268.412
-21.6578
-105.425
-128.102
-134.06
-136.955
-139.272
-140.995
-142.419
-143.694
-144.71
-145.529
-145.516
-145.907
-146.132
-145.851
-146.189
-145.594
-145.381
-145.179
-144.996
-145.045
-145.083
-145.271
-145.059
-145.337
-145.682
-145.457
-145.672
-145.813
-145.879
-145.727
-145.882
-145.667
-145.664
-146.005
-146.355
-146.175
-146.038
-146.158
-145.832
-145.781
-145.439
-145.472
-145.618
-145.86
-146.145
-146.367
-146.011
-145.843
-146.006
-146.13
-146.08
-146.003
-145.931
-145.928
-145.974
-145.954
-145.953
-146.008
-146.103
-146.012
-146.34
-146.284
-146.612
-146.459
-146.444
-146.268
-146.044
-146.208
-146.181
-146.152
-146.459
-146.148
-146.296
-146.198
-146.279
-146.277
-146.482
-146.514
1293.8
723.097
380.102
150.584
26.9671
-52.8371
-95.1769
-112.99
-126.931
-129.987
-133.936
-135.951
-137.057
-138.123
-139.651
-140.379
-141.299
-143.176
-145.176
-145.411
-146.416
-146.986
-146.955
-146.955
-146.942
-146.376
-146.422
-146.611
-146.555
-146.679
-146.761
-146.76
-146.554
1294.23
724.491
369.643
137.666
25.8098
-50.3185
-95.8812
-116.874
-126.72
-130.229
-134.091
-136.037
-137.879
-138.635
-140.125
-141.597
-143.343
-143.899
-145.377
-146.221
-146.202
-144.966
-143.776
-141.766
-142.998
-140.914
-142.397
-141.023
-139.393
-140.433
-138.897
-137.064
-137.498
-135.446
-131.718
-128.172
-126.501
-117.216
-100.246
-93.9035
-52.8013
14.0014
104.679
137.554
23.299
-51.2567
-94.731
-97.7687
-116.469
-125.673
-130.677
-130.309
-131.107
-134.983
-137.462
-139.135
-139.335
-138.951
-140.64
-141.838
-142.056
-141.768
-142.944
-143.706
-143.965
-143.683
-144.473
-144.787
-145.036
-144.811
-144.997
-145.216
-145.421
-145.615
1277.32
730.615
367.055
153.407
25.2533
-47.7938
-95.5161
-113.576
-112.839
-114.121
-106.58
-128.3
-134.862
-137.5
-139.682
-141.244
-143.141
-144.215
-145.024
-145.924
-145.935
-146.022
-146.081
-146.262
-146.284
-146.615
-146.736
-146.508
-146.481
-146.74
-147.008
-146.666
-146.829
31.412
-44.0037
-94.8313
-117.522
-125.1
-130.741
-134.305
-136.151
-137.288
-138.316
-138.392
-138.43
-139.432
-140.319
-140.351
-140.471
-141.434
-141.507
-141.501
-141.714
-143.637
-145.296
-145.593
-97.2304
-46.368
35.1225
32.7636
172.182
168.429
29.0448
-47.779
-47.7394
-50.7125
-98.6618
-116.6
-116.79
-146.054
-145.697
-145.848
-145.648
-145.794
-145.88
-145.904
-145.949
-146.095
-146.112
-146.266
-145.93
-145.828
-145.85
-146.077
-146.075
-146.27
-146.529
-146.393
-146.185
-146.096
-146.43
-146.455
-146.288
-146.392
-146.261
-146.574
-146.394
-146.299
-146.418
-146.105
-146.067
-146.311
-146.691
-146.913
-145.964
-145.789
-145.701
-145.689
-145.672
-145.777
-145.892
-146.105
-146.346
-145.757
-145.655
-145.675
-145.771
-145.756
-145.662
-145.697
-145.597
-145.545
-145.324
-145.329
-145.456
-145.415
-145.272
-145.268
-145.468
-145.545
-145.615
-145.694
-145.674
-145.58
-145.392
-145.258
-145.004
-144.62
-144.196
-143.994
-143.466
-142.766
-141.997
-141.676
-140.82
-139.666
-138.531
-138.011
-136.662
-134.916
-131.726
-131.281
-134.735
-136.548
-138.007
-138.23
-139.442
-140.578
-141.517
-141.663
-142.533
-143.233
-143.85
-143.911
-144.427
-144.798
-145.146
-145.173
-145.395
-145.537
-145.191
-145.358
-145.389
-145.426
-145.647
-145.019
-145.455
33.1401
-41.7908
-93.3412
-116.611
-124.568
-130.62
-134.407
-136.415
-137.599
-138.306
-140.193
-141.652
-141.002
-142.652
-143.959
-144.971
-145.754
-147.293
-147.404
-147.481
-147.409
-147.351
-147.346
-147.487
-147.453
-147.47
-147.403
-147.358
-147.432
-147.411
-147.464
-147.365
-147.253
-147.176
-147.033
-147.897
-147.882
-147.966
-148.169
-148.458
-148.692
-148.345
-148.987
-149.472
-149.79
-148.274
-148.041
-147.922
-147.561
-147.79
-147.509
-147.688
-148.846
-147.776
-148.26
-148.409
-148.583
-148.533
-148.488
-148.465
-148.484
-148.525
-148.59
-148.691
-148.747
-148.852
-148.738
-148.702
-148.817
-148.651
-148.587
-148.686
-148.58
-148.574
-148.709
-148.651
-148.537
-148.464
-148.402
-148.35
-148.299
-148.25
-148.226
-148.174
-147.969
-147.872
-147.853
-147.68
-147.605
-147.604
-147.481
-147.432
-147.533
-147.483
-147.421
-147.308
-147.216
-147.113
-147.038
-146.967
-146.91
-146.845
-146.769
-146.721
-146.738
-146.75
-146.68
-146.631
-146.531
-146.363
-146.181
-145.899
-145.61
-145.316
-144.912
-144.539
-144.154
-143.647
-143.19
-142.748
-142.122
-141.467
-140.932
-140.287
-139.407
-138.358
-137.532
-136.305
-133.222
-129.242
-125.942
-120.183
-106.783
-68.7198
-39.5048
18.2747
119.644
305.435
609.531
647.151
323.267
128.478
13.9882
-3.08674
-64.1804
-103.177
-119.527
-121.17
-128.806
-133.188
-136.621
-136.641
-138.341
-139.538
-140.428
-140.74
-141.568
-142.269
-142.906
-143.134
-143.722
-144.273
-144.469
-144.964
-145.403
-145.574
-145.963
-146.26
-146.405
-146.602
-146.713
-146.845
-146.831
-146.766
-146.895
-146.981
-147.047
-147.117
-147.246
-147.368
-147.48
-147.598
-147.683
-147.772
-147.872
-147.585
-147.925
-147.948
-148.114
-147.833
-148.223
-148.287
-148.484
-148.171
-148.606
-148.653
-148.69
-148.78
-148.871
-148.96
-149.033
-149.091
-149.159
-149.214
-149.35
-149.428
-148.966
-149.463
-149.365
-149.452
-148.99
-149.503
-149.411
-149.505
-149.065
-149.547
-149.416
-149.348
-149.303
-149.218
-149.138
-149.095
-149.086
-149.08
-149.058
-149.073
-149.101
-149.643
-149.663
-149.626
-149.618
-149.816
-150.01
-150.063
-150.305
-150.49
-150.191
-150.183
-150.218
-150.149
-150.489
-107.289
-113.786
-122.439
-129.835
-133.867
-136.259
-137.697
-139.043
-140.056
-141.062
-141.965
-143.769
-145.576
-145.256
-145.829
-145.786
-144.668
-146.97
-146.782
-150.063
-149.976
-149.467
-148.934
-148.758
-148.341
-148.771
-148.921
-148.903
-148.369
-147.916
-147.74
-148.067
-147.939
-147.907
-147.959
-147.968
-148.031
-148.212
-148.263
-148.115
-148.024
-148.256
-148.319
-148.19
-148.005
-148.017
-148.025
-148.042
-147.929
-147.922
-147.959
-147.918
-147.843
-147.806
-147.788
-147.787
-147.695
-147.593
-147.596
-147.515
-147.431
-147.412
-147.345
-147.271
-147.288
-147.283
-147.293
-147.327
-147.287
-147.12
-147.095
-147.048
-146.949
-146.889
-146.912
-146.908
-146.785
-146.903
-146.858
-146.721
-146.774
-146.686
-146.563
-146.513
-146.502
-146.423
-146.37
-146.307
-146.141
-145.957
-145.656
-145.349
-145.007
-144.556
-144.018
-143.549
-143.099
-142.535
-141.891
-141.378
-140.855
-140.097
-139.194
-138.465
-137.56
-136.341
-133.581
-132.106
-128.417
-121.996
-108.408
-87.2635
-59.9406
6.61823
119.423
291.523
311.47
118.38
7.09811
-57.8271
-70.4595
-105.792
-121.305
-127.978
-129.317
-133.281
-136.349
-137.802
-138.213
-139.288
-140.269
-141.017
-141.325
-141.97
-142.692
-143.244
-143.505
-144.101
-144.654
-145.114
-145.282
-145.679
-146.024
-146.148
-146.355
-146.44
-146.586
-146.585
-146.592
-146.714
-146.694
-146.731
-146.735
-146.645
-146.565
-146.695
-146.784
-147.002
-146.998
-147.067
-147.106
-146.991
-147.014
-147.046
-147.035
-146.931
-146.887
-146.885
-146.73
-146.855
-146.946
-146.971
-146.908
-146.78
-146.758
-146.873
-146.912
-146.848
-146.854
-146.942
-146.893
-146.849
-146.913
-146.924
-146.859
-146.807
-146.93
-146.906
-146.853
-146.804
-146.908
-146.896
-146.928
-146.949
-147
-147.093
-147.069
-147.006
-146.975
-147.056
-147.04
-146.982
-146.488
-146.086
-146.685
-146.717
-146.141
-146.774
-146.764
-146.176
-146.801
-146.784
-147.098
-146.994
-146.969
-146.43
-146.304
-146.324
-146.361
-146.283
-146.29
-145.946
-145.692
-145.454
-145.239
-145.01
-144.84
-144.612
-144.269
-144.253
-143.759
-143.689
-143.311
-143.579
-143.843
-143.391
-143.358
-142.863
-142.825
-142.238
-142.207
-141.518
-140.733
-140.185
-139.806
-139.951
-139.479
-138.887
-138.151
-137.237
-136.266
-135.144
-135.161
-134.363
-133.338
-133.797
-132.222
-129.999
-130.581
-127.326
-123.134
-114.396
-114.255
-117.708
-110.876
-94.1881
-94.6789
-97.9981
-58.1982
-28.3878
-60.7781
-53.7298
-97.895
-96.0985
-114.872
-113.374
-125.066
-125.984
-129.515
-129.647
-132.932
-132.827
-132.999
-134.598
-134.428
-134.412
-134.572
-135.934
-137.071
-138.014
-138.886
-139.664
-139.754
-140.581
-141.422
-142.171
-142.82
-143.41
-143.83
-144.2
-144.196
-144.196
-144.628
-144.632
-144.89
-145
-145.149
-145.299
-145.525
-145.788
-146.128
-146.129
-146.551
-146.261
-146.543
-146.05
-145.74
-145.487
-145.293
-145.113
-144.93
-144.978
-144.664
-144.626
-144.954
-145.195
-145.18
-145.259
-145.402
-145.529
-145.767
-146.089
-146.244
-145.796
-145.556
-145.376
-145.426
-145.171
-144.979
-144.622
-144.189
-143.816
-143.349
-143.334
-142.855
-142.793
-142.214
-141.485
-140.698
-140.733
-139.949
-139.207
-138.63
-138.111
-137.282
-136.435
-136.448
-135.301
-135.121
-133.688
-133.594
-130.847
-126.324
-126.442
-115.957
-114.945
-97.2781
-54.3742
18.3235
149.301
160.077
380.879
726.117
1025.35
1411.7
1392.89
1314.41
1383.96
1333.2
785.78
734.983
417.961
416.315
403.53
163.676
26.2834
26.061
20.3927
23.7345
-48.402
-48.2068
-93.5752
-92.504
-113.638
-124.433
-124.367
-129.742
-129.603
-129.982
-132.978
-132.92
-132.7
-132.768
-132.84
-134.742
-135.978
-137.116
-138.114
-139
-139.01
-139.852
-140.687
-141.491
-142.254
-142.885
-142.898
-143.549
-144.054
-144.543
-144.851
-144.832
-144.868
-145.133
-145.411
-145.743
-146.179
-146.035
-145.831
-145.881
-146.232
-145.866
-145.988
-146.176
-145.893
-145.831
-145.943
-146.194
-146.212
-145.975
-145.929
-146.222
-145.789
-145.705
-145.684
-145.97
-145.887
-145.892
-145.799
-145.754
-145.47
-145.311
-145.311
-145.397
-145.393
-145.71
-145.647
-146.095
-146.32
-146.438
-145.994
-145.59
-146.15
-146.103
-145.853
-145.887
-146.007
-146.079
-146.322
-146.315
-146.255
-146.033
-146.599
-146.598
-146.361
-146.606
-146.873
-146.713
-146.199
-146.174
-145.955
-146.03
-145.829
-146.276
-146.224
-145.76
-146.041
-146.371
-145.976
-146.341
-146.053
-145.875
-145.72
-145.829
-146.027
-146.208
-146.209
-145.548
-145.493
-145.663
-145.775
-145.586
-145.502
-145.448
-145.179
-145.045
-145.032
-145.029
-145.098
-145.199
-145.183
-145.22
-145.303
-145.375
-145.467
-145.429
-145.264
-145.316
-145.421
-145.508
-145.397
-145.242
-145.077
-144.542
-145.132
-145.437
-145.529
-145.567
-145.417
-145.555
-145.268
-145.059
-145.48
-145.032
-144.96
-144.974
-145.189
-145.154
-145.315
-145.336
-145.197
-144.827
-145.087
-145.091
-144.811
-144.209
-144.814
-144.757
-144.728
-144.732
-145.016
-144.967
-144.731
-144.623
-144.922
-144.951
-145.102
-145.14
-144.995
-144.611
-144.898
-144.517
-144.496
-144.563
-144.217
-144.4
-144.368
-143.9
-143.878
-144.069
-143.587
-143.112
-143.815
-144.236
-144.778
-144.855
-145.134
-145.225
-144.98
-145.021
-145.045
-145.025
-144.561
-145.138
-145.234
-144.812
-144.061
-144.734
-145.08
-145.092
-145.171
-145.346
-145.458
-147.622
102.333
-119.7
-138.22
-142.422
-144.559
-145.57
-146.212
-146.764
-147.003
-147.162
-147.131
-147.169
-147.19
-147.199
-147.207
-147.191
-147.133
-147.102
-146.825
-145.986
-146.705
-146.801
-147.105
-147.122
-147.02
-147.063
-147.043
-147.094
-147.053
-147.178
-147.184
-147.251
-147.354
-147.457
-147.416
-147.433
-147.352
-147.36
-147.4
-147.452
-147.435
-147.389
-147.381
-147.363
-147.351
-147.424
-147.415
-147.461
-147.358
-147.255
-147.258
-147.216
-147.172
-147.199
-147.165
-147.162
-147.232
-147.343
-147.283
-147.392
-147.37
-147.475
-147.429
-147.435
-147.357
-147.362
-147.385
-147.399
-147.468
-147.415
-147.428
-147.467
-147.516
-147.458
-147.422
-147.418
-147.461
-147.399
-147.413
-147.369
-147.354
-147.435
-147.434
-147.496
-147.442
-147.378
-147.368
-147.437
-147.407
-147.441
-147.482
-147.5
-147.882
-147.817
-147.792
-147.803
-147.749
-147.78
-147.813
-148.261
-148.339
-148.284
-148.339
-147.901
-147.762
-147.744
-147.779
-147.759
-147.693
-147.56
-147.727
-147.756
-147.687
-147.85
-147.68
-147.718
-147.72
-147.565
-147.57
-147.847
-148.335
-148.309
-148.261
-148.341
-148.283
-148.829
-148.808
-148.778
-148.763
-149.22
-149.263
-149.314
-149.158
-149.75
-149.669
-149.937
-149.46
-149.436
-149.437
-148.913
-148.936
-148.963
-149.51
-149.482
-149.783
-149.597
-150.024
-150.059
-150.112
-150.183
-150.026
-149.891
-149.98
-150.063
-150.121
-150.042
-150.006
-150.111
-150.006
-149.973
-150.079
-149.975
-149.942
-150.074
-150.042
-149.99
-149.887
-149.821
-149.698
-149.599
-149.43
-149.167
-149.037
-148.953
-148.709
-148.58
-148.509
-148.31
-148.224
-148.191
-148.079
-147.93
-147.829
-147.827
-147.789
-147.661
-147.52
-147.379
-147.251
-147.161
-147.107
-147.052
-146.968
-146.84
-146.664
-146.439
-146.196
-145.934
-145.644
-145.252
-144.899
-144.542
-144.053
-143.647
-143.221
-142.644
-142.171
-141.635
-140.869
-140.234
-139.498
-138.491
-137.072
-135.453
-132.673
-128.691
-121.288
-114.56
-100.978
-64.4811
-6.61436
51.7893
143.401
326.739
641.597
1104.39
1160.56
655.13
328.206
141.54
111.932
3.1139
-63.3241
-100.847
-105.919
-121.244
-129.023
-132.217
-133.08
-136.766
-138.521
-139.654
-140.051
-141.039
-141.838
-142.074
-142.76
-143.375
-143.573
-144.153
-144.664
-144.851
-145.339
-145.751
-145.948
-146.291
-146.506
-146.77
-146.941
-147.079
-147.115
-147.221
-147.4
-147.573
-147.723
-147.895
-148.051
-147.97
-148.102
-148.286
-148.209
-148.261
-148.101
-147.91
-147.713
-147.542
-147.365
-147.211
-147.085
-146.965
-146.689
-146.875
-146.985
-146.755
-146.482
-146.184
-145.86
-145.525
-145.169
-144.815
-144.436
-143.932
-143.499
-143.067
-142.591
-142.176
-141.451
-140.928
-140.183
-138.963
-138.153
-136.663
-133.604
-129.35
-126.322
-120.145
-107.66
-87.3896
-56.7396
5.60711
107.694
211.209
352.5
664.766
1150.77
1156.63
663.712
350.106
317.728
125.267
6.69917
-58.2189
-62.6863
-104.03
-120.833
-121.298
-129.159
-133.902
-137.045
-137.367
-139.097
-140.437
-140.552
-141.43
-142.276
-142.48
-143.141
-143.429
-144.034
-144.56
-144.788
-145.268
-145.516
-145.958
-146.193
-146.587
-146.773
-147.056
-147.234
-147.262
-147.466
-147.641
-147.828
-148.022
-148.244
-148.401
-148.409
-148.411
-148.339
-148.471
-148.626
-148.47
-148.749
-148.858
-149.07
-148.903
-149.24
-149.361
-149.614
-149.413
-149.795
-149.893
-150.043
-150.148
-150.255
-150.343
-150.436
-150.521
-150.602
-150.691
-150.361
-150.731
-150.646
-150.722
-150.379
-150.756
-150.677
-150.755
-150.417
-150.788
-150.687
-150.624
-150.733
-150.457
-150.308
-150.69
-150.833
-151.122
-151.229
-151.211
-151.142
-151.178
-151.13
-151.096
-151.157
-151.096
-151.056
-151.1
-151.045
-150.987
-150.885
-150.817
-150.734
-150.636
-150.516
-150.396
-150.243
-150.077
-149.872
-149.641
-149.478
-149.303
-149.061
-148.904
-148.787
-148.627
-148.525
-148.554
-148.664
-148.862
-149.049
-149.084
-149.245
-149.428
-149.664
-149.702
-149.886
-150.053
-150.252
-150.432
-150.657
-150.661
-150.872
-150.991
-150.902
-151.113
-151.184
-151.066
-151.256
-151.237
-151.311
-151.403
-151.474
-151.328
-151.514
-151.469
-151.532
-151.37
-151.565
-151.495
-151.432
-151.466
-151.474
-151.392
-151.295
-151.05
-150.929
-150.577
-150.502
-150.444
-150.396
-150.398
-150.441
-150.722
-150.735
-150.753
-150.786
-150.842
-151.112
-151.214
-151.423
-151.361
-151.295
-151.078
-151.036
-150.996
-150.983
-150.975
-150.758
-150.692
-150.918
-151.038
-150.883
-150.606
-150.598
-150.958
-151.124
-151.149
-151.225
-151.277
-151.291
-151.313
-151.293
-151.316
-151.25
-151.183
-150.451
-150.626
-150.728
-150.395
-150.295
-150.063
-150.343
-150.281
-150.552
-150.772
-150.507
-150.608
-150.738
-150.862
-150.912
-151.129
-151.29
-151.245
-151.228
-151.231
-151.306
-151.312
-151.289
-151.264
-151.27
-151.263
-151.297
-151.249
-151.224
-151.26
-151.201
-151.151
-150.975
-150.902
-151.012
-151.185
-151.224
-151.327
-151.145
-151.013
-151.116
-150.853
-150.971
-150.881
-150.698
-150.292
-150.743
-151.047
-151.008
-151.191
-151.154
-151.162