/*--------------------------------*- C++ -*----------------------------------*\
  =========                 |
  \\      /  F ield         | OpenFOAM: The Open Source CFD Toolbox
   \\    /   O peration     | Website:  https://openfoam.org
    \\  /    A nd           | Version:  7
     \\/     M anipulation  |
\*---------------------------------------------------------------------------*/
FoamFile
{
    version     2.0;
    format      ascii;
    class       volScalarField;
    location    "18.9";
    object      p_rgh;
}
// * * * * * * * * * * * * * * * * * * * * * * * * * * * * * * * * * * * * * //

dimensions      [1 -1 -2 0 0 0 0];

internalField   nonuniform List<scalar> 
15191
(
6761.62
6401.46
3767.18
1057.41
493.112
466.07
179.671
18.0535
2.04926
-0.386611
0.0477728
-7.89803
-8.27482
-7.39611
-4.51603
-1.43738
-0.922452
-0.925081
-0.963516
-1.00877
-1.0371
-1.07925
-1.5832
-1.64437
-1.65486
-1.42602
-0.925921
-0.919934
-0.61258
-0.719349
-0.727016
-0.493638
-0.502359
-0.468819
-0.462003
-0.422706
-0.453317
-0.706565
-0.74513
-0.746988
-0.645895
-0.672677
-0.739758
-0.708489
-0.521405
-0.561445
-0.5867
-0.589972
-0.59913
-0.61638
-0.789368
-0.744116
-0.721382
-0.633719
-0.592234
-0.678848
-0.750893
-0.794875
-0.801027
-0.596742
-0.610934
-0.618793
-0.624507
-0.591486
-0.58103
-0.872756
-0.857106
-0.88343
-0.741069
-0.743284
-1.11377
-1.18491
-1.72545
-1.80418
-1.7839
-1.53904
-0.980288
-0.957541
-0.946469
-0.941064
-0.642217
-0.730962
-0.736277
-0.496527
-0.503404
-0.502432
-0.537457
-0.319086
-0.303945
-0.245696
-0.155344
-0.152819
-0.212617
-0.044948
-0.0919187
-0.256735
-0.246281
-0.272977
-0.225388
-0.0981458
-0.121397
-0.237708
-0.121368
-0.134318
-0.236651
-0.219001
-0.207646
-0.107157
-0.109365
-0.157094
-0.13884
-0.0466081
-0.0777291
-0.124842
-0.102287
-0.181272
-0.208584
-0.205666
-0.209948
-0.258125
-0.401399
-0.330536
-0.308578
-0.464478
-0.51461
-0.42861
-0.332791
-0.398387
-0.526976
-0.640989
-0.570305
-0.41407
-0.413089
-0.550507
-0.612768
-0.663595
-0.627166
-0.466303
-0.527577
-0.663781
-0.517668
-0.583325
-0.72046
-0.693596
-0.747257
-0.651772
-0.723361
-0.841121
-0.848436
-0.7522
-0.697485
-0.849758
-0.821273
-0.9097
-0.758192
-0.748275
-0.93693
-0.905812
-0.734118
-0.6775
-0.765605
-0.904886
-0.817467
-0.700549
-0.759672
-0.948974
-0.989997
-0.907993
-0.707866
-0.638959
-0.794964
-0.881002
-0.905428
-0.245939
-0.176945
-0.191406
-0.298399
-0.160846
-0.155119
-0.243745
-0.210357
-0.206581
-0.0911138
-0.0602242
-0.0832468
-0.0510018
0.0454183
0.0220544
0.0323805
0.138301
0.107784
0.0790811
-0.0143765
-0.0242576
-0.0683811
-0.175984
-0.107415
-0.0973354
-0.204654
-0.301517
-0.189049
-0.0939713
-0.122575
-0.191499
-0.325261
-0.251173
0.0121205
-0.0515587
-0.184475
-0.279582
-0.273084
-0.269967
-0.06811
-0.0623918
-0.169252
-0.243261
-0.102106
-0.0812858
-0.179785
-0.172637
-0.00518257
0.0147289
-0.0299826
0.0878333
-0.00517452
-0.0859315
-0.203105
-0.137043
0.00513809
0.00643126
-0.144511
-0.20249
-0.119805
-0.169199
-0.242819
-0.175073
-0.168322
-0.268143
-0.253009
-0.189418
-0.231303
-0.300039
-0.256321
-0.204545
-0.147108
-0.326136
-0.361977
-0.322991
-0.311741
-0.322188
-0.311781
-0.304106
-0.331957
-0.2921
-0.333219
-0.292457
-0.183317
-0.272997
-0.348007
-0.38373
-0.362151
-0.378634
-0.572529
-0.599191
-0.617982
-0.610959
-0.595687
-0.602584
-0.604056
-0.564007
-0.550623
-0.532714
-0.543406
-0.469121
-0.44135
-0.471342
-0.496356
-0.28936
-0.268088
-0.273035
-0.291354
-0.271235
-0.25578
-0.295707
-0.271838
-0.255949
-0.201752
-0.261213
-0.345236
-0.395955
-0.394237
-0.389945
-0.327133
-0.360831
-0.355153
-0.898642
-2.17492
-1.80227
-1.05243
-0.840197
-0.525839
-0.277163
0.0139118
-0.0500016
0.188248
0.0904235
-0.582987
-1.49433
-2.13448
-2.94252
-4.17634
-5.38073
-6.06229
-6.70726
-7.60682
-8.38798
-8.95189
-9.24974
-9.12935
-8.62934
-7.4012
-4.74459
-4.33032
1.23557
8.84607
24.9163
60.9831
102.972
145.465
256.752
394.51
1057.93
1401.13
3128.41
5104.75
7956.87
14987.4
17922.8
24728.2
37351.7
55598.3
57577.1
45927.4
56753.6
56382
37993.8
38810.1
38342.5
23983.4
14887.2
14779.6
7959.52
6157.5
3364.53
5170.93
9269.58
8622.64
11068.3
16722.9
24736.6
23708.3
16878.5
14681.8
13919.4
9321.8
4775.97
4309.52
2010.92
2252.35
2280.65
817.573
1271.01
502.886
267.344
221.053
400.42
657.648
588.595
736.638
772.8
736.562
804.626
967.762
445.402
261.32
327.001
150.431
138.364
153.116
50.9319
53.4251
24.5193
6.74067
4.21615
10.2538
25.7433
23.451
56.2625
59.9283
22.3349
11.3485
8.46163
-2.61882
-0.663216
-2.10525
-5.99426
-5.83357
-7.18246
-8.72429
-8.85278
-6.72201
-5.82112
-7.57185
-7.30861
-7.70896
-8.24581
-7.23266
-7.27127
-8.71647
-8.72832
-9.12431
-8.88515
-8.9161
-8.29319
-7.60549
-7.01819
-7.4832
-8.22135
-8.20238
-8.75476
-8.62451
-8.08538
-7.7154
-7.25399
-6.38083
-6.36739
-6.45238
-5.38041
-5.32519
-4.13605
-2.87581
-2.00803
-2.72195
-4.07725
-4.17139
-5.31205
-5.3
-4.13904
-3.35731
-2.53246
-1.24068
-1.11092
-1.22165
-1.33917
-0.38661
0.226177
0.270246
0.277799
0.297261
-0.137247
0.178947
0.457473
0.454751
0.171949
-0.256237
-0.755961
-1.55427
-2.7376
-3.98812
-5.17843
-5.78551
-6.34463
-7.15858
-7.90141
-8.47088
-8.75036
-8.87373
-8.83579
-8.44215
-7.15593
-6.94318
-3.58258
6.7521
26.7434
57.4371
87.2039
170.042
276.825
619.27
945.503
2649.09
4335.49
5201.34
9093.23
14642.9
24426.1
38804.1
56059.3
38395
39538.6
24517.2
18719.5
25476.6
25483.9
39085.5
54867.4
54770.7
40464.1
31437.7
42679.9
56432.4
55711.4
54786.3
55021.4
39484.6
40353.4
26667.9
26202
25361.1
14028.5
15242.4
16661.2
14312.8
9588.38
5235.12
2536.6
2579.06
1606.7
1073.41
1496.51
1103.96
2293.22
4418.14
4970.96
7480.98
8024.42
8476.93
8518.59
5084.21
2323.07
1062.82
493.555
571.473
687.272
350.141
160.889
57.2363
54.5818
24.7733
5.65146
18.1062
11.9494
40.2508
98.6504
190.917
265.226
521.019
370.262
642.525
889.34
1861.23
3817.98
7407.62
8652.85
14679.8
19876.2
16122.8
11500.3
7969.19
11019.9
15822.7
26168.1
25646.8
40251.2
55402.9
69988.2
78472.6
86970.6
84822.5
70420.7
72239.6
57464.6
50691.2
60088.5
57895.1
69745.2
84764
85550.6
73656.4
60271.8
43946.1
43988.9
47525.8
41750.2
38883.9
24583.9
15171.7
15250.9
9592.05
5098.32
5201.27
5247.03
3873.33
2239.94
998.866
877.905
530.275
338.045
197.866
176.42
77.9221
80.6664
33.0886
18.4412
34.425
50.712
116.036
168.451
268.53
410.637
737.798
1432.27
3033.63
2594.58
3627.33
3342.98
4348.32
9051.89
9590.86
13963.9
25953.3
26310.8
34296.8
34433.4
44121.6
60199.7
73555.7
85541
84779.8
84835.8
70565.1
69734.7
57920
47504.8
44293.4
41829.8
26044
26244
15601.8
15665.6
10415.4
4228.06
4759.59
3009.42
2337.19
2202.68
1185.53
1562.31
864.642
453.485
211.089
189.91
107.021
56.955
74.5918
33.5754
30.1204
19.1458
11.3888
11.7402
6.22213
1.26621
0.705271
-3.37774
-7.94865
-7.46292
-8.84781
-8.99557
-8.92099
-8.69243
-7.8884
-7.14882
-2.81849
-3.62494
-4.00248
-3.58192
-7.15819
-8.53059
-8.80509
-8.80666
-8.85816
-8.75663
-8.34274
-8.385
-7.87273
-7.42276
-7.76153
-7.6124
-8.16559
-8.46276
-8.66957
-8.86369
-8.6538
-7.92068
-7.70078
-3.70888
2.35836
-0.114762
9.49742
16.2738
7.40789
1.70697
8.77638
7.35859
23.4878
18.284
34.9175
78.5263
166.909
334.563
644.48
434.451
1065.9
1407.09
1360.5
3423.94
3408.24
4264.05
10418.2
9576.03
13994.1
15260
24701.3
38832.6
50652.5
60221.4
57550.7
55452.7
69997.9
70731.4
55083.8
39537.5
40293.2
25695.8
15306.8
9637.09
9059.37
4330.75
4741.54
2960.98
1392.64
1360.81
940.842
943.523
310.949
166.628
210.318
106.568
45.5308
30.5163
28.2412
31.7086
13.1643
13.1438
2.92672
0.685451
-2.50728
-2.53364
-4.90994
-4.78353
-7.11614
-8.08001
-8.48751
-8.34842
-7.84047
-5.89955
-5.50454
-6.68808
-4.06105
-1.77828
-0.930567
-6.27006
-3.51433
-1.2821
6.06805
-1.37443
3.42671
31.7452
28.2715
46.0708
84.9467
80.1401
160.837
304.759
425.714
1055.2
1178.29
2193.24
3291.56
2321.46
2743.32
3240.9
3241.73
2762.33
2390.27
1010.62
550.496
271.315
137.703
35.1293
47.5172
21.8484
14.4427
6.80432
-0.336333
-4.53352
-5.21692
-4.82328
-6.25508
-6.23025
-6.81874
-7.52005
-7.62835
-7.77667
-8.03077
-8.22243
-8.51595
-8.06671
-8.08938
-7.59888
-7.18899
-7.53017
-7.3724
-7.87006
-7.64597
-7.81476
-7.40016
-7.33959
-7.47712
-7.39384
-7.1769
-7.04382
-5.40025
-6.49211
-4.81826
-4.46078
-4.62843
-4.6526
-1.47761
3.21247
29.8335
28.2305
43.0739
43.6561
103.383
205.346
336.112
641.083
875.475
1576.37
2603.98
3647.31
5141.1
5246.96
5262.36
8031.59
10988.9
15860.3
26191.8
26767.9
40480.8
55775
70813.2
70520.7
56455.9
42769.6
31529.6
26329.5
19886
16130.4
11526.4
8659.95
14733.5
14096.2
25417.7
25462.2
39116.4
54957.6
56074
38440.8
25538.7
18648.1
16566.7
15228.3
7470.35
7422.4
3793.69
3851.04
2200.27
3058.79
1466.16
746.528
413.105
461.213
217.172
168.312
81.8147
31.7433
28.1625
29.0879
14.7776
6.69816
-0.973327
-4.76972
-4.50305
-4.73817
-6.48053
-7.19094
-7.16058
-7.37098
-7.44659
-7.16633
-7.20659
-7.07449
-7.12415
-7.24302
-6.67264
-6.77872
-6.76508
-6.77127
-6.9258
-6.92955
-6.99753
-6.20247
-5.20152
-5.13733
-4.10628
-3.4243
-4.06133
-3.98621
-5.02652
-5.58622
-6.1194
-6.19903
-6.1207
-6.0411
-5.10466
-4.04366
-2.94936
-2.70541
-2.6771
-1.65979
-0.734208
-0.332353
0.00556706
0.0771768
0.104803
0.096781
0.241516
0.280919
0.558723
0.309349
-0.141387
-0.0485333
-0.00815437
-0.403645
-0.745101
-0.485879
-0.193425
-0.320227
0.496305
0.486537
0.0964184
-0.122935
0.222311
0.14703
0.18622
0.440859
0.324814
0.294721
0.28337
0.312554
-0.448979
-0.860069
-0.724138
-0.614445
-1.56395
-2.32488
-3.08348
-4.30877
-5.50757
-6.2083
-6.8624
-7.61442
-8.36818
-8.87659
-9.06021
-8.86186
-8.7849
-7.1322
-5.09668
-1.89825
6.8007
17.3949
29.4147
32.2592
94.1865
171.875
244.875
496.214
615.619
955.132
3105.87
3916.32
7922.12
10138.6
16549.5
26217.2
37632.2
54429.8
39153.3
26302.6
24958.2
24523.5
14466.2
8219.17
8255.91
3763.65
2989.38
2882.73
2568.38
1057.66
545.061
461.069
209.197
194.96
155.677
138.518
40.9129
14.8059
21.5193
15.73
1.68037
0.315498
-3.2362
-7.85165
-8.64602
-6.91371
-8.23545
-8.71928
-9.09598
-9.39167
-9.06471
-8.39754
-8.46709
-7.67326
-6.81554
-6.72458
-6.637
-5.47539
-5.43723
-4.21405
-3.00667
-3.01599
-3.08441
-1.74203
-2.12442
-1.07541
-0.363544
-0.0563785
-0.126025
0.063162
-0.0517432
-0.718222
-1.65769
-1.78492
-2.45849
-3.25961
-4.48427
-5.61627
-6.31888
-6.946
-7.31497
-8.06677
-8.8844
-9.34931
-9.42259
-8.00122
-6.26565
-4.89435
-1.44396
5.411
14.016
18.8324
14.9247
34.6128
98.4809
288.943
257.781
377.183
736.537
1501.81
4603.2
6050.28
9187.31
15814.9
22917.3
35673.1
53478.2
40807
24374.4
15045.7
8257.84
5048.75
2162.75
2497.08
1064.52
470.235
289.814
270.52
139.197
51.8702
21.9449
13.5513
14.6548
-1.41427
-7.02538
-7.63946
-8.09272
-9.14572
-9.17789
-8.88523
-8.22336
-7.50838
-7.45207
-6.48296
-5.38357
-4.16725
-2.79691
-2.94668
-1.53938
-1.94226
-2.10177
-1.41174
-0.627404
-0.376841
-0.447031
0.00583147
-0.100815
-0.150301
-0.177254
-0.265279
-0.655581
-0.97797
-1.81202
-2.07319
-3.19829
-3.98113
-4.73108
-5.86369
-6.93106
-7.5711
-8.09386
-8.7148
-8.88438
-8.34417
-7.96451
-7.88524
-8.3513
-6.87834
-0.7302
7.99275
6.92771
4.69447
8.57319
22.1397
56.9641
134.345
164.848
418.938
754.264
2203.39
2744.09
4217.39
8438.99
13903.2
22625.7
47264.2
19161.2
6446.02
1713.32
252.476
36.1666
14.4183
-7.04005
-8.04973
-7.93258
-7.0392
-5.62465
-4.00685
-2.20531
-0.757895
-0.748894
-0.756649
-0.748444
-0.801384
-0.783265
-0.793122
-0.581241
-0.373183
-0.350101
-0.574961
-0.618651
-1.00412
-2.47475
-0.961607
-0.554307
-0.523894
-0.615205
-0.850566
-0.874229
-9.26182
-9.72302
-10.3849
-10.8855
-10.9033
-11.4757
-11.1031
-10.0459
-6.20155
-2.97445
2.99029
11.4585
11.8738
12.2475
41.422
111.28
246.451
376.631
634.346
884.375
1654.81
2784.89
4057.8
8058.51
47493.8
19439.6
6455.23
1627.55
297.168
71.0016
13.7239
-3.99331
-7.63651
-8.4996
-8.40382
-8.0677
-7.43139
-6.76387
-5.92464
-5.06199
-4.08562
-2.95555
-2.74214
-3.38125
-4.08383
-5.04325
-5.97452
-5.85374
-6.32303
-5.85806
-5.15413
-5.05007
-4.02317
-2.92397
-2.74361
-1.89022
-1.77425
-1.81835
-2.74247
-1.74588
-1.24302
-0.716156
-0.230602
-0.0549418
-0.0574242
0.0974196
0.0116015
-0.100293
0.0476571
-0.0954198
0.103391
0.0380121
-0.0250779
-0.730245
-0.934854
-0.42939
0.0945938
-0.218202
0.352468
0.267687
0.199823
0.534488
0.39801
-0.501073
-1.16457
-2.30176
-1.80548
-1.36435
-1.69084
-1.95955
-0.919607
-1.50774
-2.36184
-1.03807
-1.1013
-0.882991
-1.00532
-2.45289
-1.9977
-1.11053
-0.894646
-0.668647
-0.336571
-0.431752
-0.277425
-0.406781
-1.0843
-1.53064
-2.11976
-3.26519
-3.4924
-4.7423
-5.92585
-6.65872
-7.28373
-8.18075
-8.74475
-9.16866
-9.81936
-10.3446
-10.4349
-10.2076
-10.538
-9.80872
-9.07256
-4.3998
11.4072
27.0715
27.0048
22.9158
53.0939
208.059
217.67
356.723
846.529
2607.26
4212.26
6909.2
9878.63
13835.8
23285.3
37857.7
23952.5
14762.4
8886.9
4823.45
2557.57
1773.97
677.707
447.476
527.164
693.712
290.138
169.281
83.0897
29.5568
18.6194
6.41434
10.9777
4.92932
4.82297
6.17441
0.833229
-6.3637
-8.14604
-8.64746
-7.30703
-8.3814
-9.61536
-9.38031
-8.86878
-8.41343
-7.83975
-7.04339
-6.89113
-5.79219
-4.57202
-3.27583
-3.34618
-3.34146
-2.11955
-1.07649
-0.97113
-0.967268
-0.374997
-0.230149
-0.292336
-0.483264
-0.278643
-0.305684
-0.301632
-0.173324
-0.195522
-0.604594
-0.915942
-1.70485
-1.40612
-1.13663
-1.38346
-1.24768
-1.18404
-2.25362
-3.39835
-4.17098
-4.90944
-6.00741
-6.20675
-7.3413
-8.34522
-8.98996
-9.46851
-10.0904
-10.5303
-10.3812
-6.5948
-6.90863
-8.89567
-9.1141
-4.83232
2.55359
9.82227
9.73956
35.4666
107.608
184.407
331.86
496.637
552.408
746.774
2162.14
5537.24
6195.96
8261.58
13342.7
22349.4
23734.9
14774
9193.17
5220.38
5003.29
2032.52
793.795
355.914
459.569
253.545
106.116
49.9296
34.7733
17.8819
18.0422
-2.38693
-2.27998
-8.95195
-9.96747
-9.2369
-6.48994
-10.4289
-10.0564
-10.0331
-9.29399
-8.38288
-7.36481
-7.28224
-7.28793
-6.16239
-4.96748
-4.96947
-4.94459
-6.10524
-6.84015
-7.50834
-8.43653
-8.62077
-9.55572
-10.3198
-10.3078
-10.3961
-10.3247
-8.57275
-10.1672
-8.3687
-8.77845
-2.72107
3.88743
2.31462
9.40629
40.8594
143.789
205.97
408.508
655.126
1006.93
917.696
2721.04
4165.43
8317.33
9757.06
15534.6
23222
23463.6
15292.7
10537.7
9730.24
5026.99
2573.81
948.403
943.186
542.786
368.154
120.706
165.901
50.6952
21.5525
10.8315
9.34508
-0.929713
-7.41238
-9.90323
-10.0836
-9.56891
-8.25257
-10.3717
-10.4991
-10.372
-10.2114
-9.47302
-9.57766
-9.47111
-8.52629
-7.49607
-7.5731
-7.51342
-8.59295
-8.52363
-7.48021
-6.28756
-6.28524
-4.28004
-5.05707
-6.12972
-5.15005
-5.11994
-5.09868
-3.70951
-3.47563
-2.36658
-1.32946
-1.11599
-0.526333
418.78
709.254
2276.89
3926.4
6296.93
7362.79
14129.7
47436
19513.5
6289.67
1624
277.582
58.0234
7.51861
-5.7474
-8.12481
-8.15161
-7.25236
-5.80338
-4.05118
-3.98517
-2.43008
-2.6787
-2.33575
-1.41837
-2.04792
-1.78385
-1.53829
-1.2208
-2.45023
-2.78888
-2.99093
-2.73572
-3.06517
-3.48817
-3.21228
-4.22085
-3.66128
-2.48762
-2.25414
-1.12476
-0.859234
-0.741445
-0.167656
-0.0449608
0.117722
0.0784635
-0.0325161
0.00937437
0.0715635
-1.89262
-3.24801
-3.42547
-4.36485
-2.6988
-1.67434
-2.55597
-2.34013
-2.5173
-1.354
-1.12083
-1.74737
-2.37383
-3.45358
-3.65202
-2.41942
-2.49621
-2.52983
-1.3605
-1.06473
-0.509419
-0.466746
-0.320175
-0.174897
-0.335721
-0.421752
-0.47272
-0.381305
-0.347833
-0.3096
-0.346641
-0.309796
-0.440134
-0.676508
-0.454153
-0.473388
-0.329455
-0.350496
54589
40892.9
24401.5
15428.3
8693.73
5393.31
2522.13
1052.23
497.707
383.186
150.958
34.0126
10.7905
1.99288
-2.84281
-7.9145
-8.3448
-7.41082
-4.50558
-4.71454
-1.99168
-0.680072
-0.736697
-0.649998
-0.696533
-2.21856
-2.32672
-2.5019
-2.45926
-2.54448
-2.6947
-2.67467
-2.4449
55528.3
41331.9
25882.2
14620.2
7486.06
5508.5
2908.89
1069.34
420.954
310.118
162.122
24.7489
10.3056
0.400154
-0.393433
-8.88876
-7.4914
-8.3327
-6.22899
-4.5723
-4.69845
-10.8925
-9.7787
-7.47565
-9.87191
-4.42332
-5.91717
10.4331
25.3075
18.8194
39.1082
57.7265
38.6635
105.394
289.275
289.019
422.733
755.962
2370.02
2777.17
5093.22
7544.82
14434.5
14374.9
8569.34
5118.97
2967.46
2323.76
913.448
420.493
420.758
251.189
348.834
193.114
43.1254
24.4903
16.4654
14.9886
19.3119
6.54313
1.80486
3.11801
-8.65399
-10.1658
-11.0254
-9.79999
-11.0782
-11.9547
-11.3556
-10.7607
-10.6804
-10.4955
-10.6545
-9.87832
55482.9
39958.8
25584.4
14489.1
8988.68
5747.02
2742.66
910.766
768.827
767.44
1506.76
334.91
74.3983
2.24159
-6.54968
-8.46753
-7.29317
-7.65217
-6.07158
-4.35892
-4.4469
-4.468
-4.61016
-4.10097
-2.87718
-1.84004
-0.91462
-0.678498
-0.635582
-0.964304
-0.762344
-2.50666
-1.01321
6950.05
5935.16
3705.23
1002.98
488.955
334.095
176.28
22.2429
3.35268
0.285603
6.20579
10.1728
6.37298
-6.81153
-6.87893
-6.96931
-8.05241
-8.14931
-8.44925
-8.73968
-7.71457
-4.80207
-4.91118
2467.5
5022.82
8823.1
7761.66
14130.7
13885.7
9678.2
4888.78
4723.22
4918.16
2286.92
874.305
721.705
-1.33564
-7.38459
-6.22977
-6.68008
-6.1694
-4.97319
-3.70211
-3.75751
-3.93429
-2.63649
-1.48451
-5.06097
-4.90042
-5.01162
-3.9376
-2.66118
-1.53283
-0.711858
-0.498126
-0.588043
-0.210986
-0.238459
-0.281957
-0.40615
-0.497465
-0.419185
-0.266965
-0.0949484
-0.173218
-0.284651
-0.245575
-0.184334
-0.439522
-0.887956
-1.03893
-3.8037
-3.5782
-3.49826
-2.23085
-2.12083
-2.30336
-2.43066
-2.69086
-2.92886
-3.56464
-4.77346
-4.75822
-4.87834
-4.94678
-6.08347
-6.08717
-5.9787
-5.96938
-6.46158
-7.07918
-7.12427
-7.07759
-7.00584
-6.94927
-5.85622
-4.66169
-4.75624
-4.77208
-5.94404
-7.12239
-8.12518
-8.21228
-8.91778
-9.31766
-9.78996
-7.89217
-9.30683
-10.1554
-9.22141
-6.56702
1.49747
14.4941
18.015
6.28052
18.6274
51.4034
175.913
265.435
116.273
35.8926
8.27066
10.2584
7.40575
5.08629
-7.67319
-9.18378
-9.98697
-9.37636
-7.97349
-9.44546
-9.40707
-8.82247
-8.10324
-8.07054
-7.03451
-5.91759
-8.10429
-8.29168
-8.29248
-8.33689
-7.31802
-8.5775
-8.37925
6985.71
5953.98
3721.08
1024.94
514.603
335.053
174.367
23.0096
3.02304
1.98287
-7.10018
-8.9643
-8.84872
-9.6216
-9.75733
-8.45743
-6.83303
-1.04815
-1.20387
-1.24513
-0.880756
-0.596621
-0.633206
-0.765717
-0.777626
-0.815974
-0.715844
-0.599975
-0.918353
-0.896394
-1.26911
-1.19503
-0.970029
-1.38183
-1.87868
-2.03125
-1.98918
-2.22019
-2.86769
-3.68936
-4.49752
-3.42891
-5.46305
-7.02042
-8.10346
-3.54264
-2.50903
-2.05783
-1.74812
-1.95519
-1.34871
-1.51685
-2.99769
-2.05744
-3.57554
-3.82444
-3.99964
-3.8267
-3.72446
-3.65139
-3.63958
-3.69531
-3.82651
-4.02777
-4.15164
-4.36623
-4.0873
-3.95458
-4.198
-3.83656
-3.71033
-3.89399
-3.64227
-3.63438
-3.97129
-3.87425
-3.63162
-3.5503
-3.47136
-3.4183
-3.37954
-3.33488
-3.43342
-3.41379
-3.00179
-2.89758
-3.00473
-2.70575
-2.64172
-2.79083
-2.58156
-2.69314
-2.99879
-2.87068
-2.75394
-2.5433
-2.38502
-2.26857
-2.22409
-2.20326
-2.20386
-2.25963
-1.99807
-2.52368
-3.20956
-4.29501
-4.98885
-5.6787
-6.69298
-7.30387
-7.8534
-8.63829
-9.09038
-9.4174
-9.8121
-10.1299
-9.5165
-10.0586
-10.3576
-10.2296
-9.02373
-4.99295
2.5794
7.65939
9.68626
36.0576
108.159
185.245
335.478
495.138
552.501
769.895
2210.31
5491.6
6197.69
8223.91
13315.5
22343.6
36622.1
35063.2
23118.7
15564.6
9870.48
8313.1
4190.07
2738.36
933.405
1013.41
657.368
410.027
206.444
142.846
40.9426
13.6266
4.10986
3.02198
-3.72424
-8.00307
-10.1718
-9.56454
-9.73974
-10.2582
-10.3868
-10.1591
-9.57967
-9.63814
-8.8563
-7.95626
-7.97025
-6.89917
-5.80674
-5.84945
-4.53424
-3.30749
-3.33643
-3.38268
-3.44805
-3.47846
-3.55005
-3.68174
-3.86894
-4.04112
-4.12898
-4.2487
-4.43834
-3.41232
-4.41454
-4.28669
-4.55981
-3.55818
-4.64512
-4.59174
-4.9186
-3.89518
-5.0393
-4.99696
-4.92228
-5.0129
-5.09069
-5.17693
-5.25158
-5.31626
-5.40285
-5.46278
-5.71793
-5.89441
-4.72818
-5.94191
-5.72737
-5.94635
-4.80868
-6.03837
-5.84684
-6.08217
-4.98533
-6.18246
-5.9379
-5.81436
-5.75218
-5.60853
-5.45178
-5.39918
-5.44659
-5.48124
-5.46061
-5.516
-5.64452
-7.34929
-7.36759
-7.25023
-7.1717
-7.6382
-8.42081
-8.61844
-9.46921
-10.2862
-9.14512
-9.18997
-9.31626
-9.2023
-10.654
1496.37
1005
424.574
309.134
109.902
19.193
8.33534
6.70513
-1.18292
-8.87647
-8.88925
-7.92154
-4.89428
-4.76127
-5.32984
-5.28825
-8.79166
-1.13101
-0.90182
-9.20573
-9.10936
-7.27319
-5.52896
-5.29465
-4.22772
-5.35314
-5.49243
-5.47575
-3.74365
-2.30286
-1.56339
-2.49462
-2.20227
-2.1036
-2.15897
-2.16591
-2.30754
-2.67251
-2.83344
-2.43165
-2.2194
-2.66398
-2.82622
-2.53743
-2.16753
-2.2072
-2.19772
-2.14946
-1.94734
-1.96203
-2.13381
-2.09959
-1.95644
-1.91883
-1.96578
-1.95485
-1.72534
-1.59887
-1.68299
-1.65893
-1.5788
-1.5065
-1.50324
-1.44572
-1.43501
-1.42022
-1.60702
-1.88658
-1.74282
-1.39276
-1.2914
-1.24742
-1.14573
-1.15224
-1.33992
-1.1616
-1.48211
-1.00881
-0.990094
-0.885139
-0.919737
-1.7062
-2.25996
-2.90136
-3.985
-4.68834
-5.39338
-6.45847
-7.07363
-7.616
-8.34775
-8.80251
-9.16055
-9.62205
-8.24887
-8.53673
-9.53597
-9.76678
-8.88191
-8.22013
-5.23426
7.77457
27.124
26.8442
23.8604
53.6152
211.864
218.926
353.949
843.667
2602.41
4170
6889.9
9795.16
13824
23242.3
22375.1
14401.9
7853.09
6476.66
4964.86
2027.48
808.919
360.008
464.502
253.785
105.103
48.2685
34.9292
12.8274
10.8288
-2.67051
-3.09559
-8.88028
-10.2403
-9.69259
-9.92337
-8.61652
-9.67388
-9.22308
-9.24169
-8.53913
-7.7091
-7.69474
-6.65495
-5.4841
-5.49961
-4.23026
-3.01883
-3.03833
-1.86583
-1.81146
-2.00169
-1.11013
-0.714006
-0.857575
-0.621565
-0.326816
-0.276159
-0.354481
-0.407948
-0.316037
-0.270149
-0.323073
-0.313486
-0.177357
-0.199882
-0.254627
-0.144194
-0.165855
-0.183833
-0.260592
-0.20559
-0.0870129
-0.0714857
-0.194308
-0.219799
-0.129093
-0.170677
-0.24178
-0.176367
-0.156751
-0.224786
-0.212726
-0.129124
-0.142161
-0.23554
-0.195011
-0.134187
-0.134391
-0.264841
-0.260911
-0.286301
-0.287084
-0.312709
-0.342852
-0.319806
-0.327283
-0.296872
-0.306601
-0.283409
-0.298951
-0.719032
-1.97823
-0.849137
-0.902949
-2.08819
-0.969327
-0.957542
-2.12189
-0.9912
-0.973267
-0.345613
-0.304603
-0.320783
-0.709925
-0.577858
-0.615909
-0.679892
-0.565745
-0.401663
-0.64931
-1.11334
-1.90116
-2.94635
-3.96515
-4.63754
-5.19375
-5.97008
-5.92555
-6.61887
-6.52141
-6.91483
-6.62132
-6.4053
-6.82657
-6.77615
-7.13585
-7.10659
-7.38608
-7.38977
-6.98861
-5.43352
-5.54875
-6.08455
-6.04841
-6.03047
-2.48992
3.87595
13.7079
19.8093
36.6005
58.6792
111.365
195.888
166.981
267.584
327.473
190.339
327.392
514.847
985.611
866.43
646.097
898.924
1818.83
1847.3
2316.87
4428.05
4954.52
4132.61
4556.53
2186.59
2519.47
944.532
1060.23
722.736
517.621
421.771
334.83
165.765
124.677
132.748
33.9166
39.5389
39.8766
47.8257
20.0167
9.11531
-0.0530626
-4.72253
-5.92813
-6.54633
-6.47234
-7.63342
-7.43329
-7.05564
-6.64949
-6.34874
-5.76506
-5.8294
-5.88372
-5.08947
-5.12678
-4.36752
-4.16662
-3.70728
-2.92668
-1.93137
-1.0876
-0.559973
-0.387235
-0.375446
0.0264754
-0.29295
-0.316223
-0.980881
-1.89221
-2.85045
-3.52709
-4.24141
-4.20257
-5.07333
-5.00374
-4.19383
-3.39943
-3.39127
-3.08524
-2.67437
-1.89297
-0.955764
-0.29073
-0.443875
-0.952357
-1.86134
-2.62123
-2.67646
-3.37843
-4.22036
-5.00185
-5.75639
-6.33798
-6.77228
-6.77461
-7.1316
-7.13508
-7.32401
-7.04899
-6.67819
-7.32798
-6.32515
-3.84945
-2.21594
-0.000139215
7.37816
24.4139
33.0095
73.8149
49.6055
112.745
76.6428
175.759
369.735
531.293
1121.1
1509.83
2561.39
5249.02
9550.48
14281.8
14664.4
24463.9
38757.5
46531
56900.2
57932.6
56389
56627.6
56241.9
39495.9
39537.4
24619.7
25979.3
25971.9
14304.1
8438.86
8017.7
8639.68
9130.06
4847.9
4388.49
2879.54
2531.21
1147.25
659.775
490.165
249.791
273.149
227.875
91.8971
94.2462
130.482
119.162
98.1318
46.6221
22.1267
17.1231
6.83244
-0.212292
-2.16697
-5.06621
-6.80712
-7.45611
-7.48143
-7.14156
-7.11405
-6.52735
-5.85278
-5.06295
-4.16886
-4.19286
-4.04503
-3.00528
-1.98617
-1.12126
-0.56843
-0.33739
-0.374401
-0.145156
-0.195656
-0.0851378
-0.215743
-0.137965
-0.0974185
-0.330945
-0.136787
-0.07609
-0.0905005
-0.15744
-0.133086
-0.456817
-1.08255
-1.02539
-1.0325
-1.33294
-1.24368
-1.20964
-1.06713
-0.838218
-1.27702
-1.85715
-1.90694
-1.93272
-1.89151
-0.945696
-0.665648
-0.240287
-0.0212767
-0.133456
-0.159588
-0.762511
-0.283254
-0.267951
-0.320921
-0.0369812
-0.142759
-0.267246
-0.161047
-0.142658
-0.402421
-1.91896
-0.714336
-0.76526
-0.509953
-0.782755
-0.989251
-0.82224
-0.266624
-0.27762
-0.315704
-0.111529
0.107741
-0.0477796
-0.0230978
-0.93687
-1.26177
-1.5817
-1.17394
-0.496567
-0.190248
-0.020167
-0.129728
0.0184984
-0.181391
-0.0854774
-0.0834028
-2.05225
-1.96069
-2.21157
-2.35378
-3.41392
-3.33695
-3.23501
-2.91003
-4.12126
-4.0721
-4.12026
-4.16992
-4.33064
-4.26027
-4.2401
-4.40545
-4.41254
-4.37375
-5.57465
-5.60378
-5.69395
-4.52539
-4.5782
-5.74473
-6.88634
-6.70014
-8.06568
-6.81854
-5.865
-4.69102
-4.78397
-4.57549
-3.33987
-5.69258
-6.17368
-5.91328
-6.76825
-6.66208
-6.65882
-5.55225
-5.57409
-4.4621
-4.53649
-5.62489
-5.9619
-5.50334
-5.45864
-6.42958
-7.72618
-6.51377
-6.49097
-6.41049
-6.40653
-5.38554
-5.32497
-6.36418
-6.27736
-5.2832
-5.361
-4.18202
-4.3056
-5.40552
-5.63447
-5.27232
-6.177
-6.24207
-6.29118
-7.15429
-7.28974
-7.27415
-8.05551
-8.06807
-8.22193
-8.87024
-8.74166
-9.06511
-8.42303
-7.69863
-7.74599
-6.79196
-6.97663
-7.73629
-7.89951
-7.9387
-7.96498
-8.14542
-8.06385
-8.16192
-8.95981
-9.73603
-9.98568
-9.2523
-9.26183
-9.38389
-9.51691
-9.72159
-11.7489
9996.3
633.429
39.3908
-9.83089
-10.4963
-9.0008
-7.23143
-5.21599
-2.99403
-0.968069
-0.936517
-0.655261
-0.675861
-0.684357
-0.693084
-0.997259
-0.960554
-0.929955
-2.71694
-5.3722
-2.36237
-2.4592
-0.797769
-0.837627
-1.22389
-1.24689
-1.23645
-1.2875
-1.89904
-1.40197
-1.40771
-0.944184
-1.18175
-1.26321
-0.901802
-0.919317
-0.599246
-0.606958
-0.713113
-0.803129
-0.765791
-0.698756
-0.689529
-0.61051
-0.597758
-0.909288
-0.900066
-1.26596
-1.1862
-0.948259
-0.974167
-1.42149
-1.35726
-0.893598
-0.769942
-0.85646
-1.01361
-1.12754
-1.0376
-1.19239
-1.19917
-1.27758
-0.911047
-0.919445
-0.603624
-0.608556
-0.694188
-0.709809
-0.820162
-0.738908
-0.733063
-0.815508
-0.872184
-0.812777
-0.729051
-0.743792
-0.797091
-0.707359
-0.732639
-0.613218
-0.592971
-0.915556
-0.919573
-1.26092
-0.919388
-0.633504
-0.607519
-0.744296
-0.710447
-0.766764
-0.862301
-0.860597
-2.19
-2.1112
-2.06732
-2.08328
-2.02296
-2.07033
-2.13057
-3.61633
-4.27437
-3.64564
-3.68538
-2.44155
-1.98839
-1.96152
-2.04048
-1.72095
-1.4431
-1.26848
-1.68715
-2.05559
-1.88974
-2.34841
-1.8603
-1.92074
-1.91096
-1.44486
-1.44638
-2.0817
-3.6273
-3.62715
-3.61274
-4.27865
-3.62854
-5.4749
-5.45529
-5.42411
-5.39545
-7.09546
-7.11629
-7.12106
-7.68984
-8.89631
-8.8727
-9.09254
-7.32348
-7.30679
-7.29785
-5.50848
-5.53895
-5.55629
-7.4116
-7.37473
-7.87053
-6.86576
-8.23104
-8.25996
-8.31657
-8.40108
-7.86792
-7.47337
-7.64296
-7.8182
-7.89006
-7.66065
-7.61243
-7.83263
-7.56964
-7.53753
-7.77126
-7.52168
-7.49952
-7.85765
-7.81796
-7.75434
-7.64322
-7.57525
-7.45575
-7.36434
-7.19633
-6.70219
-6.55333
-6.6058
-6.22527
-6.08585
-6.1678
-5.85352
-5.78183
-5.91149
-5.80374
-5.5783
-5.40503
-5.66709
-6.0083
-5.86776
-5.72261
-5.58838
-5.07408
-5.57235
-5.66202
-6.21633
-6.76276
-7.31035
-8.18729
-8.68748
-9.08885
-9.47694
-9.84762
-10.3628
-10.7392
-10.8388
-11.0661
-10.959
-9.53624
-4.73601
-2.23394
4.64775
8.1913
10.0927
14.0984
41.7444
109.522
236.838
367.802
635.32
881.51
1667.05
2792.78
4105.56
8028.47
9949.64
16570.6
23975.1
35445.8
53846.2
53474.8
36645.6
25099.5
14509.8
14475.6
7550.86
5100.21
2761.88
2367.26
745.438
417.97
237.913
282.699
103.344
36.879
15.2738
36.9806
19.2547
7.14512
5.69114
-6.16587
-10.6005
-10.4265
-11.238
-11.0809
-10.6922
-10.5663
-10.011
-10.0162
-9.32831
-9.37591
-8.47011
-7.52154
-7.57194
-6.59003
-6.53103
-6.62392
-6.81146
-6.96339
-7.1248
-7.36959
-6.39611
-6.67163
-7.46227
-7.69357
-8.76003
-8.56665
-8.32211
-8.09194
-7.91966
-7.7744
-7.67172
-8.77503
-8.63914
-9.56873
-9.73131
-10.0878
-10.4152
-10.6663
-10.9162
-10.8285
-10.9401
-10.2828
-9.76799
-9.4379
-7.39931
-7.13848
-4.3312
-5.3705
-0.0923185
10.355
34.7771
54.7687
124.475
103.954
145.807
414.673
525.552
411.339
707.912
2272.24
3918.25
6300.47
7377.11
14123.3
17227.3
25645.5
37964.1
54524.2
55079.2
35831.9
24383.8
22887.6
14087.5
7695
4671.01
4976.91
2434.78
715.796
1120.7
707.95
455.375
251.91
309.209
151.283
63.8966
33.9003
3.20031
1.47595
1.82434
-5.07079
-8.99386
-10.4094
-9.76349
-11.3724
-11.0301
-11.5755
-11.3328
-11.5748
-11.0365
-11.1469
-10.5286
-9.80675
-8.902
-9.03532
-9.21192
-9.46953
-9.71501
-9.92042
-10.104
-8.99614
-8.21456
-7.30336
-7.48594
-7.72861
-6.7881
-7.80421
-7.77975
-8.12326
-7.18809
-8.28033
-8.28225
-8.68461
-7.72524
-8.88088
-8.84242
-8.97208
-9.06482
-9.16832
-9.25838
-9.35834
-9.45818
-9.56476
-9.79475
-8.69702
-9.8245
-9.59639
-9.79562
-8.70858
-9.84875
-9.63911
-9.84943
-8.78425
-9.92659
-9.73059
-9.60704
-9.91908
-9.03534
-8.73824
-10.0108
-10.3237
-11.6243
-11.822
-11.6975
-11.4515
-11.5007
-11.3204
-11.2903
-11.4856
-11.2776
-11.2414
-11.3807
-11.2937
-11.2428
-11.0201
-10.9725
-10.8888
-10.79
-10.6673
-10.5212
-10.4858
-10.312
-10.1362
-9.80768
-9.63727
-9.60799
-9.23052
-9.07011
-9.08876
-8.92082
-9.00197
-10.0779
-10.1451
-10.4289
-10.7478
-10.0282
-10.9198
-10.9773
-11.352
-10.6386
-11.5494
-11.5897
-11.6634
-11.8702
-12.343
-11.6013
-12.5263
-12.6885
-11.8614
-12.832
-12.9139
-12.0143
-12.9805
-12.7057
-12.7421
-12.955
-13.1504
-12.28
-13.214
-13.0297
-13.2171
-12.3308
-13.274
-13.0734
-12.9218
-12.9981
-13.1802
-13.0661
-12.9836
-11.5158
-11.34
-9.80654
-9.74103
-9.68059
-9.6178
-9.70647
-9.91532
-11.2153
-11.1943
-11.1607
-11.1617
-11.2193
-12.6777
-12.8505
-13.9894
-13.8806
-13.81
-12.6401
-12.6693
-12.6825
-12.6549
-12.6734
-11.3382
-11.1599
-12.4379
-13.2863
-12.3623
-10.8957
-10.8979
-12.5255
-13.8881
-14.0454
-14.7666
-15.4777
-16.4727
-17.1771
-16.4334
-17.7739
-18.4004
-18.8888
-16.8452
-15.96
-12.4047
-10.7711
-12.0236
-10.4965
-10.7576
-10.7265
-11.0995
-12.515
-12.2165
-12.2784
-13.6537
-13.7944
-15.0771
-15.3987
-15.5562
-15.3588
-15.2825
-15.1921
-15.3832
-15.978
-16.4622
-17.1131
-16.4212
-16.5043
-16.6307
-17.6652
-17.4594
-17.49
-18.061
-18.3305
-18.2477
-18.2153
-18.0311
-18.3784
-18.6544
-17.8647
-17.6266
-17.477
-16.4836
-16.1982
-16.3076
-17.2589
-17.1188
-16.0629
-14.8629
-15.2284
-14.0269
-14.233
-14.0262
-14.0179
-14.0051
-14.3506
-14.9164
-15.7114