/*--------------------------------*- C++ -*----------------------------------*\
  =========                 |
  \\      /  F ield         | OpenFOAM: The Open Source CFD Toolbox
   \\    /   O peration     | Website:  https://openfoam.org
    \\  /    A nd           | Version:  7
     \\/     M anipulation  |
\*---------------------------------------------------------------------------*/
FoamFile
{
    version     2.0;
    format      ascii;
    class       surfaceScalarField;
    location    "18.9";
    object      phi;
}
// * * * * * * * * * * * * * * * * * * * * * * * * * * * * * * * * * * * * * //

dimensions      [0 3 -1 0 0 0 0];

internalField   nonuniform List<scalar> 
43852
(
-0.000401337
0.00029984
0.00237391
-0.00441684
0.00156018
0.00034109
0.000713711
-0.00205681
-0.000526873
-0.000651273
-0.000125303
-0.00424885
0.00711389
-0.00277304
0.00324941
-0.00490454
-0.00082987
0.00473088
-0.00196154
0.00386735
-0.00446111
0.00466653
-0.00488347
-0.00326175
0.00383873
-0.00373023
0.00539924
-0.00420863
-0.00408696
0.00428843
-0.000875383
-0.00469747
0.0021098
-0.00427589
0.00277734
-0.00131657
-0.00440661
0.00313087
-0.00183715
0.00229015
0.00194911
-0.00271039
-0.00397008
-0.00158412
0.00187412
0.000818855
-0.000486973
-0.00246474
-0.00273271
0.00152631
-0.000118001
0.000282682
-0.00216835
-0.000329145
-0.00331333
0.00768481
-0.0118733
0.0102037
-0.000746444
-0.00361996
0.000725648
-0.00107627
-0.0017017
0.00293508
-0.0133125
0.00415988
0.00273341
-0.000913031
0.00220551
-0.00205256
0.00162083
0.0019355
-0.0637264
-0.000117709
0.0117726
0.01468
0.0122858
-0.00113425
0.00847027
0.00444738
-0.0581826
-0.000264066
0.00488352
-0.00321198
-0.00696415
-0.00684891
-0.00607321
-0.00425691
0.00578987
-8.63577e-05
-0.00746515
0.000193082
0.000410633
-0.00361468
0.00464006
0.000584626
-0.00302025
0.00447624
-8.77649e-05
-0.00133187
0.0050013
-0.000727971
0.00411952
-0.00130432
0.00505588
-0.00046092
0.00595048
-0.00295977
0.00461712
0.00702516
-0.00367296
0.00030999
0.00389932
0.00631835
-0.00778662
-2.48515e-05
0.0537049
3.2406e-05
-0.000997817
0.0410866
-0.00550419
-0.00118168
-0.00635195
0.0407227
-0.00739638
-0.00419638
-0.00604876
-0.0068243
0.0577554
2.16633e-05
-0.000420091
0.00617288
-0.0031475
-0.00316185
0.00617749
-5.80418e-05
-0.00022099
-1.52275e-05
0.00973375
-0.000391582
1.67572e-05
-2.41115e-05
0.0132227
-0.00073272
0.000259315
-0.000801213
-4.43077e-05
0.013634
0.000150706
-7.60826e-05
-4.61482e-05
0.00236028
0.000114558
0.000811354
-5.72203e-05
0.00229763
0.000115129
0.000712457
-8.13831e-05
0.00222655
-3.16026e-05
0.000682392
-0.000120786
0.00213843
-0.00019477
0.000553485
-0.000106559
0.00179941
0.000578537
-0.000148985
0.00154699
-0.000223406
-0.000247616
-2.13976e-05
-0.000151552
0.0130354
0.000364545
0.0134751
0.000127056
1.28903e-05
0.0137167
-0.00125567
0.0123483
-5.79342e-05
-6.98319e-05
0.00139217
0.0130312
0.00011077
0.0137013
-0.000353368
-0.000406758
-4.76001e-05
-0.000400969
-3.69277e-06
0.0137355
-8.32626e-05
-8.00103e-05
3.84654e-05
0.00169701
-0.000196488
-1.65367e-05
0.00165626
-2.68004e-05
0.00162611
1.52737e-05
0.000146301
-2.36237e-06
0.00164837
3.98321e-05
-7.0369e-06
0.000415117
0.00163325
3.62617e-05
0.000429831
3.1565e-05
-0.000153789
0.00162101
-0.000195266
-0.000280743
-3.56355e-05
0.0135966
-3.87618e-05
0.0136336
0.000229034
0.000163212
-4.1001e-05
0.0134254
0.000284647
0.0114843
-0.000331719
0.00572996
-0.00149243
0.0115099
2.90137e-05
-0.000145527
0.00110317
0.0131071
0.000280955
0.0135671
-0.000419733
-0.000380212
-4.23743e-05
-0.00018014
-5.07506e-05
0.013833
7.27752e-05
-0.000178711
0.00163994
-1.91306e-05
-8.20137e-05
3.06843e-05
0.00167005
5.32843e-05
3.04715e-05
0.00161079
0.00020946
0.000153373
-3.69008e-05
0.00152367
0.000194019
0.00057456
-0.000159515
0.00154134
0.000550403
-0.000116525
0.00181009
3.2365e-05
4.08644e-05
-0.000315814
-0.000676553
0.0129279
-0.000103795
0.01369
0.000208464
-0.000391321
-5.3311e-05
0.0129505
0.000170728
0.0115042
0.0031997
-0.000126819
0.00888382
1.04257e-06
1.18522e-05
0.0050803
0.00785879
0.0050171
-0.0032085
-0.000318875
0.00826096
-0.00707779
-0.00601953
-0.00423029
0.0524247
-7.74426e-06
0.0327663
-0.00615007
-0.00601129
0.0353755
-0.00414889
-0.00598302
0.0536788
6.5423e-05
-0.000726538
0.00504953
-0.00130588
-0.000590777
0.00501982
-0.0013186
-0.000199901
-0.00301371
0.00448658
-0.00361191
0.00462854
-0.000143343
-0.00126693
0.0123245
0.000241835
-0.000395258
-1.92763e-05
0.0137012
2.77935e-05
-0.000835742
-0.000750815
0.000204271
-0.000187486
0.0134977
-0.000116194
9.89233e-05
-7.52152e-05
0.00230473
-4.09266e-05
-6.50346e-05
0.00236466
0.000769333
2.54528e-05
0.00240224
-5.58424e-05
0.000791835
-5.4023e-05
0.00239332
0.000879156
6.70678e-05
0.00230534
-1.18159e-05
0.000812346
8.21748e-05
6.26581e-06
0.0030313
0.000318348
-5.76111e-05
0.000398238
0.00333973
0.000670051
-0.00012506
0.000694901
0.00015543
0.000302573
0.000725562
-0.00082654
0.000141774
0.00193374
-0.000276318
0.00186327
0.00013705
-0.00019589
0.00240058
0.00049193
-0.000157558
0.00264383
0.000240657
-2.82287e-05
0.00230303
-0.000132505
-0.000175388
0.00237849
-0.000485845
-0.000164542
0.00189752
0.000103263
0.000105266
0.00160079
0.000149683
4.48589e-05
0.00210385
-0.000385709
-2.50562e-05
0.0021391
0.000159195
3.63131e-05
0.00160826
0.000177395
3.5547e-05
0.00194187
-6.85895e-05
-8.46997e-05
0.00167842
-3.17587e-05
-0.000168424
0.0016895
-0.000253307
-0.00015159
0.00192917
0.000257864
-2.58885e-05
0.00152367
0.00016443
4.05823e-05
0.00162303
-2.54388e-05
-0.000103536
0.00131827
-0.000302797
-7.34409e-05
0.00130167
-0.000241867
0.000103949
0.00160378
0.000258741
-3.92551e-05
0.00124612
0.000424601
-0.000198816
0.000904865
5.28021e-07
-0.000754424
0.00170798
-0.000153501
-0.000591139
0.00133132
-0.000210399
-0.000220064
0.000982521
-0.000250203
3.58605e-05
0.00136172
-9.14156e-05
0.000111514
0.00188573
0.000458767
8.53068e-05
0.00150352
-8.74144e-05
-2.57224e-05
0.00209696
-8.21873e-05
1.70233e-05
0.00208253
0.00048136
0.000102944
0.00157758
0.000111494
0.00189937
-0.000163668
-0.000311978
0.00242417
-0.000171041
-0.000393553
3.92967e-06
0.00220248
0.000346383
-0.000119888
0.00232448
0.000619631
0.000119954
0.00168157
0.000209481
0.00195187
-0.000178948
-0.00024136
0.00201498
-0.000326892
-0.000778555
0.00202617
-0.000177478
-0.000352655
0.00184968
0.000132006
0.000177343
0.00249711
-0.000202382
0.000477337
0.00268207
-0.000161342
0.000261829
-3.68781e-05
0.00237891
-0.000135993
0.00245747
-0.000185107
-0.000496132
0.00195791
-0.000166393
0.000106577
0.000106031
0.00163776
0.000160528
3.89988e-05
0.00216162
-0.000393974
0.00220699
-2.32302e-05
0.000164592
0.00164576
3.76838e-05
0.00018545
3.29491e-05
0.00199508
-6.76439e-05
0.00172616
-8.33478e-05
-3.08589e-05
0.00173225
-0.000169491
-0.000246443
0.00199375
-0.000149792
0.000279245
-2.96131e-05
0.00157239
0.000226115
5.58967e-05
0.00170142
-4.87418e-06
0.0013768
-9.41676e-05
-0.000200574
0.00138557
-9.95729e-05
-0.000300987
5.99651e-05
0.00168241
0.000313072
-2.52122e-05
0.00159617
-9.21496e-06
0.00196871
-0.000133043
0.000176573
0.00177462
-0.000172209
-0.000221284
0.00167399
-7.49513e-05
1.65587e-05
0.00207673
1.85918e-05
0.000355478
6.80498e-05
0.00154053
-3.73801e-05
0.00226639
-0.000110238
-0.000603095
-5.1934e-05
0.0023536
-0.000282831
-3.88999e-05
0.00278287
0.000209312
-0.000205132
0.00260146
0.00062559
5.22789e-06
0.00245635
-4.2416e-05
-0.000261594
0.00240313
1.14574e-05
-0.000336908
0.0026126
0.000361433
-0.000206572
0.00234487
0.000787232
0.000144517
0.00175781
0.000238526
0.00195437
-0.000168204
-0.000192925
0.00194747
-0.000313718
-0.000590237
0.00190856
-0.000171534
-0.000332603
0.0001219
0.00164442
0.000395084
-0.000108029
0.0022809
0.000300376
0.00216994
2.26753e-05
-8.95902e-05
-0.000151899
0.0023111
-9.34825e-05
0.00179391
-0.000449682
-0.000163738
0.00192808
8.34077e-05
9.8331e-05
0.00160366
0.00018352
3.48363e-05
0.00216765
-0.000431671
-2.49603e-05
0.00218807
0.000186988
3.48255e-05
0.00166261
0.000159995
3.23991e-05
0.00198111
-5.6291e-05
-8.93463e-05
0.00174075
-4.61446e-05
-0.000169137
0.00172834
-0.000252892
-0.000159864
0.00198512
0.000256445
-2.46491e-05
0.0015438
0.000168943
3.72457e-05
0.00165038
-2.48626e-05
-0.000104332
0.00132832
-0.000302313
-7.57946e-05
0.00130793
-0.000240762
0.000102787
0.00159833
0.000256832
-3.73902e-05
0.0012419
0.000420554
-0.000195363
0.000898608
2.52527e-06
-0.000743377
0.0016811
-0.00014786
-0.000582962
0.00131394
-0.00020782
-0.000210172
0.000955408
-0.000242457
3.92606e-05
0.0013312
-0.000102115
0.000112998
0.00183191
0.000459893
8.04592e-05
0.00147642
-0.000107858
-2.35802e-05
0.00203108
-4.40955e-05
2.25756e-05
0.0020537
0.000409538
0.000104924
0.00152121
0.000180536
-0.000166667
0.00188884
-0.00041713
-0.000147179
0.00232519
-0.000257287
1.23251e-05
0.00224843
0.000192539
-0.000109282
0.00219008
0.000737251
0.000112107
0.00175334
0.000111736
-0.000154662
0.00185971
-0.000346993
0.00202346
-0.00027195
-0.000315515
0.00190315
-0.000619419
0.000708819
-0.000278229
0.000673491
-6.53947e-06
0.00035908
0.00325131
-0.000774088
0.000389401
0.00296646
-0.000735659
0.0003869
-0.000587718
0.00288609
-0.000136022
-0.00037421
0.00254427
-0.000411421
0.00072434
-8.95439e-05
0.000670073
0.000106739
0.0002263
-0.000489314
0.00326703
5.61672e-05
-0.000319663
0.0029261
-0.000319955
0.00101285
-7.42767e-06
0.000718024
0.000272712
3.02104e-05
-0.00045853
0.00339488
0.000251954
-0.000251428
0.00288575
0.000365864
-0.000159059
0.00196735
0.000287686
0.00024924
-2.64535e-05
4.92573e-05
-0.000517987
5.56705e-05
-0.000409171
0.000126157
3.59056e-05
-0.000194102
0.0021782
0.000447657
-0.000473172
-0.000318796
0.00332186
0.000289543
-0.000224665
0.00256861
3.32804e-05
0.000606235
-0.000228048
0.000601389
-0.00044237
-0.000279498
0.00246335
6.1839e-05
-0.000251766
-0.000506551
0.00317335
0.000228082
0.000705088
-0.000159986
0.000983452
0.000250357
-0.000197523
-0.000400041
0.00299782
3.66692e-05
0.000760118
-0.000208402
0.000754319
-0.000356624
-0.000330135
0.00283455
9.74651e-06
-2.93807e-05
-0.000494678
0.0034727
0.000295131
0.000750644
-0.00011022
0.00107234
-0.000160225
-0.000323176
0.00304082
8.68249e-05
0.000205131
-0.000501853
0.0033474
0.000414244
0.000697136
0.000748972
-0.000629978
0.00320101
5.25748e-05
0.000125159
0.00224217
-5.90942e-05
0.000109885
0.00292811
-0.000263356
0.00355502
0.000352792
-0.000359375
0.00266637
0.000147393
0.000387332
-0.000566678
0.00299386
-0.000568879
0.0033476
0.000460727
-0.000320634
-0.000140203
0.00300383
-0.000577607
0.00339831
0.000508456
-0.000571557
-0.00048446
0.00290748
0.000494253
-0.00057041
0.00289713
-0.000523917
0.00300414
-0.000550903
-0.000500593
0.00292593
-0.000262
-0.000254685
0.00286056
-0.000307099
-3.562e-05
0.00250212
0.000357862
-1.81298e-05
-3.92237e-05
0.00125011
1.42766e-05
0.0025561
-0.000185672
0.000400337
7.20581e-05
0.00166904
-9.06752e-06
3.13593e-05
0.00163602
0.000157112
1.03188e-05
0.00164862
3.28864e-06
0.00042228
0.00163304
-0.000145244
3.6033e-05
0.000419841
0.00162887
1.99994e-05
3.93363e-05
1.16824e-05
0.00164312
0.000191269
1.33347e-05
5.54306e-05
0.00161873
8.36675e-05
-1.97717e-05
0.000426486
0.00163691
-7.32884e-05
3.21361e-05
0.000374891
0.0016732
7.05617e-05
3.35686e-05
0.00161755
2.45135e-05
0.000216165
-3.97195e-05
0.00151813
0.000177987
0.000196124
-0.000168637
0.000603804
0.00152469
4.05724e-05
-0.000130241
0.00057867
0.00177612
-9.76297e-05
-0.000139686
0.000707624
0.00212612
-9.88949e-05
0.00222485
0.000705012
8.02926e-05
0.00217922
-0.00010658
0.00014098
0.0028066
-0.000192894
-0.000607943
0.00314712
3.62915e-05
0.00220936
-9.07336e-05
0.00287746
-0.000241222
0.00347077
0.000319873
-0.000347083
0.00263958
0.000342998
-0.000542461
0.00296551
0.000247363
-0.000512732
0.00319934
-0.000338695
0.0030691
-0.000540728
-0.000428694
0.00323055
-0.000563909
-0.000471967
0.00289474
-0.000294197
0.00248724
0.000356807
0.00124418
0.000302053
0.00253113
-0.000118876
0.00295417
-0.000211632
0.0025279
0.00124884
0.00353265
0.000359076
0.000496705
-0.000254171
-0.000837199
0.0119838
0.000581269
0.000688275
-3.58338e-05
-0.00279448
-0.00319796
-0.00326016
0.000143282
-2.28175e-05
0.00102878
0.000842858
-0.00133956
-0.0037332
0.000376062
8.93983e-05
0.00252072
0.000482255
0.00043732
0.000516332
-0.000792401
-0.000950913
0.000461659
0.00038326
0.00358632
-0.000768171
0.000704274
0.000324382
0.00336931
-0.000617142
0.000475801
0.000309804
0.00296345
-0.000479321
0.000688395
0.000113338
1.03688e-05
-0.000335311
-0.000243092
0.00183145
-0.000232366
-0.000659782
0.000133349
7.98853e-06
-0.000264037
0.00140468
2.70142e-06
4.07308e-05
0.00150761
-2.48836e-05
-0.00013106
5.36176e-05
0.00158745
-1.34815e-05
5.43733e-05
-0.000118377
0.000959449
-0.00159871
0.00100603
0.00122676
0.00109678
3.77132e-06
8.34262e-06
-0.000146225
0.00111568
5.03033e-05
7.74316e-06
-7.60481e-05
0.00105098
6.3341e-05
-3.08348e-05
3.27224e-05
0.000533888
-0.000872633
0.000679436
0.000713008
0.000715235
-0.00023698
5.42012e-05
4.49175e-06
0.00064074
9.51771e-05
5.52962e-05
-7.56903e-05
0.000650941
-1.67736e-05
-5.70363e-05
6.43388e-05
0.000459403
8.58597e-05
0.000252984
-0.000146576
0.000273781
-0.000265352
0.000107206
0.000343141
0.000304837
4.12503e-05
-8.90671e-05
1.9478e-05
0.000659992
0.000153705
-0.000154455
-0.000354207
0.00121973
-0.000374305
-0.000277169
9.16721e-05
0.000986945
-0.000663078
0.00114313
-0.000248587
0.000351005
-0.00145899
0.0012287
0.000863906
0.000305122
-0.000688826
0.000370152
0.000366056
0.000451275
-0.000514891
0.000549873
-0.00018226
0.000740964
0.000672882
-0.00114964
0.000185875
0.000399333
9.47863e-05
-0.000194738
0.000439335
0.000603831
-0.00046942
-0.000194504
0.000455829
0.00121257
-0.000424314
-0.000186444
2.34904e-06
0.00226715
0.000276645
-0.000122431
-0.00121061
0.00363352
0.000499925
-0.00129915
-0.000568535
0.00217439
0.00010891
0.00180501
-0.000456487
0.00149833
-0.00140623
-0.00026168
0.00234231
0.0011179
4.73914e-05
-0.000377241
0.00071058
0.000870743
0.000690429
-0.000598829
0.000155071
0.00117872
0.00116413
-0.000258633
-0.0012138
0.000835817
0.000834389
-0.000223654
-0.000268269
0.000322002
-0.000360283
0.000407913
0.000465546
0.000400661
0.000416494
-0.000224893
-0.000269924
0.000946116
-0.0002642
2.40322e-05
-0.000305093
-5.37242e-06
8.92042e-05
-0.000204331
-0.000698155
-2.01331e-05
-0.00028684
0.000412056
-0.000704314
-0.000922104
0.000516116
-8.29761e-05
-0.000175355
-0.00114495
-0.000302685
-0.00029418
-0.000716765
9.35399e-05
-0.000227012
-0.000230113
-0.000757433
-1.11338e-05
-0.000987033
-0.000429578
-0.000672024
0.000628756
-0.000527941
-0.000737715
-0.000834928
0.00113735
-0.000236782
-0.000441748
0.000175847
-7.45445e-05
0.000732703
6.37675e-05
1.11783e-05
0.000578561
2.57646e-05
0.00110411
-0.000196475
-0.000853973
-4.309e-05
0.00134743
0.00127903
-0.000943558
0.00142927
-0.000184269
0.00197001
-0.000690892
-0.00200768
0.00215754
0.00125755
0.000370354
0.000930017
-0.000588445
0.00102545
-0.000495566
-0.000218346
0.000946292
-0.000413444
0.000764581
-4.22864e-05
-0.000662508
0.000120293
0.000349225
-0.000716492
0.000713052
0.00106318
-0.00108883
-0.00127364
-0.000423881
0.00168401
0.000385608
-0.00159361
-0.000984095
0.00153959
-0.000741591
0.0017022
-0.00272634
-0.00105754
0.00111175
-0.00062383
-0.00131941
0.00229083
-0.000926454
-0.000271681
0.000287095
-0.000408209
-0.000938972
-0.00100094
0.000814761
-0.001323
-0.000426031
-0.00163756
-0.000457312
0.00216626
-0.00139482
-0.00378191
0.000841323
-0.00324494
7.08689e-05
-0.00011085
-0.00143004
-2.50883e-05
-0.00151592
0.000654674
-0.00102122
-0.00084136
-0.000223446
0.000784324
0.00043499
-0.000590655
0.000103492
0.000291832
0.000891524
0.000640752
-0.00319778
0.00176815
0.000585937
-0.000406549
0.000404485
0.000305663
-0.000822093
-0.000735558
0.00187095
-6.74462e-05
-0.00164092
-9.5519e-05
0.00133449
-0.00096749
0.00164162
-0.00114371
-0.00104626
-0.000125759
-0.000230509
-0.000601446
-0.000782769
0.00128406
0.00144153
0.0013489
-0.00164674
-0.000491151
-0.000885288
-0.0036073
0.00228031
-0.00182553
-0.00360011
-0.000925956
0.00274293
-0.000830984
-0.00214187
0.000120692
-0.00198335
-0.000120723
-0.000676494
-0.00111437
0.000994671
-0.00118812
-0.000427815
-0.000633427
0.000137365
0.000751785
-0.000647614
0.000331333
2.2959e-05
-0.000734304
-1.65349e-05
0.000291193
0.000538132
-0.000482739
0.000573929
0.000181114
-0.000747468
0.00131068
-0.00110323
0.00141718
0.000532686
-0.000368105
-0.000271754
0.000805403
-0.000541774
-0.00223089
0.000346853
-0.000912715
-0.00142207
0.000518721
-0.000796159
-0.00173121
-0.000403342
0.00034101
-0.00140355
-0.000841581
0.000690885
-0.0005517
-0.000967932
-8.98858e-05
0.000204522
-4.14579e-06
-0.000515607
0.000255393
-0.000653349
0.000493148
0.00013385
-0.000815632
0.000288635
-0.000260566
-0.00140505
-0.000589023
-0.000946123
-0.000232746
-0.000601701
-0.000403302
-1.06573e-05
-0.000378274
0.000402023
-0.000427861
-0.000652432
0.000274408
0.000785255
-0.000215063
-0.000175419
-0.000127867
-0.000135648
0.000266909
-2.80474e-06
-0.000161675
-0.000229529
0.000233704
-0.000196274
-0.000436017
-0.000113477
-0.000184767
-0.000293309
-6.36567e-05
-8.05469e-05
-0.000612026
-0.000334144
0.000490841
-0.000933283
5.82498e-05
4.71852e-05
-0.000361763
-0.000869945
4.93983e-05
0.000248871
-0.00024658
-0.00074495
0.000201514
-0.000787771
-7.04258e-05
-0.000272486
-0.000600057
0.000381637
-0.000296464
-0.000483259
3.03436e-05
-0.000599129
0.0001404
-3.9159e-05
-0.000510193
5.46447e-05
-4.54588e-05
0.000515491
-0.00069669
-0.000980505
0.000651041
0.000650929
-2.08548e-05
-5.55219e-05
0.000349847
-0.00015688
0.000633777
0.000116373
-0.00041308
1.40894e-05
0.000212725
5.92786e-05
-0.000647215
4.90065e-05
-5.67957e-05
-0.000539269
0.000130646
-0.000119538
-0.00097456
-0.000588502
0.000611432
-0.00109366
-0.000155242
0.000253405
-0.000304745
-0.00095716
-0.000167992
0.000336412
-9.40913e-05
-0.00100014
9.24155e-05
-0.00127801
-3.29058e-05
-0.000250422
-0.00105909
0.000136242
-0.00010452
-0.00110908
5.20395e-05
-0.00107703
6.40557e-05
-4.39992e-05
-0.000908885
-2.8198e-05
-0.000133131
0.00077507
-0.00115502
-0.00155145
0.00102216
0.00107474
-0.000301848
-1.66251e-05
0.00018138
-9.82187e-05
0.000951956
2.89327e-05
-0.000731068
-6.60041e-05
9.5222e-05
-4.29801e-06
-0.000809662
-3.42838e-05
-1.61996e-05
-0.00068889
-2.8838e-06
-8.54169e-05
-0.0013187
-0.000981309
0.000880794
-0.00155869
6.05052e-05
-0.000121868
-0.000290585
-0.00128706
-0.000197729
0.000216498
-0.000209625
-0.00125374
2.42596e-05
-4.6293e-05
-0.00156372
-0.000144019
-0.00157733
-7.14884e-05
-0.00139917
-5.46938e-05
-0.000140137
-0.00112646
-0.000122734
-0.000140163
-6.88544e-05
0.000547406
0.000782141
0.000395334
0.00149182
7.35306e-05
-5.69559e-05
-6.28436e-05
-0.00117264
1.52929e-05
-0.000141095
6.73199e-05
0.000452129
0.00103308
0.000359251
-0.00011113
-0.000113281
0.00192481
0.00027345
-0.00200531
-0.000305172
0.000945141
-0.0011721
0.0011989
0.000960648
0.00112784
3.07431e-05
-0.000138415
-7.04873e-05
0.00159858
-0.000122844
-0.000307238
-3.68066e-05
0.00149831
0.00028839
-0.000187605
0.00134242
0.000165587
-4.46781e-05
0.00069995
-0.000870528
0.000872005
0.000642312
0.000801733
0.000107252
-0.00010678
-9.95364e-05
0.00116717
5.45986e-05
-0.000365334
-5.22003e-05
0.00119746
0.000331046
-0.000230657
0.00111563
0.000174336
-4.39901e-05
0.000534506
-0.000702307
0.000731052
0.000553405
0.000553183
3.2547e-05
9.06149e-06
-5.79603e-05
0.000746416
5.8028e-06
-0.000231727
3.49076e-05
0.000656858
0.000241512
-0.000216185
0.000497119
0.000157325
-0.000113392
0.000256616
-0.000338026
0.00024932
0.000328002
0.000388976
0.000183848
-0.0003049
-1.04679e-05
0.00128252
0.000346145
-0.000637795
-0.000601086
0.0024864
0.000479379
-0.00116875
0.00354497
0.000663271
-0.00137944
0.00177274
-0.00144052
0.00169568
0.0015148
0.00211038
0.00112167
-0.000547816
-0.000912431
0.00315696
0.00221845
-0.0017339
-0.00153213
0.00390913
0.00302784
-0.00307888
-0.000701708
0.00369501
0.00374893
-0.00166734
0.0014084
0.00203091
0.000540519
0.000451532
0.000912425
0.000101595
-5.767e-05
0.000151225
0.0020121
-0.00091265
-0.000798822
0.000792861
0.00266547
-0.00214023
-0.00116677
0.000947966
0.00163987
-0.000849006
0.00123202
0.000557393
-7.73161e-05
0.000600166
-0.000343973
-0.000980536
0.000305561
-0.000348258
-0.000412077
-0.000225801
0.000134752
-0.000477051
-0.000453787
-9.15295e-06
0.000180899
1.54757e-05
-9.23939e-05
5.48866e-05
7.95327e-05
-0.000428551
0.000474954
7.40527e-05
-0.000228864
0.00119142
0.000751637
-0.00142747
-0.000441403
0.00130929
0.000470057
-0.000453436
0.00043555
-0.000373596
-0.000736603
0.000153876
-6.489e-05
-0.000365052
0.000140445
-4.14376e-05
0.000744038
-0.000310993
-0.00161688
0.000818666
0.000761291
0.000213202
-8.96157e-05
0.000250195
-4.8959e-05
0.000252193
-0.00107267
-9.20143e-05
0.000165586
-0.000436931
5.87606e-06
-0.000165772
-0.00140601
-0.00118242
0.00030452
-0.000273094
-0.000972358
0.000431453
-0.000368256
-0.000715178
-0.000417039
-0.000636207
-0.000732274
0.00100412
-0.000350229
-0.0012281
-0.000189782
0.000470988
-0.00192538
-0.000168107
-0.00179073
-0.00117307
0.00168461
-0.000646188
-0.00202966
-0.000448696
-0.000739139
-0.00258244
-0.000690296
0.00132223
-0.000556898
-0.000814311
-0.000596906
0.00360494
-0.000900637
0.000200357
0.00268067
-0.00146662
-0.00242462
0.000451504
0.00296529
-0.000791777
-0.00128097
0.00179739
0.000174139
0.00139384
0.000898955
0.000595163
0.00142715
-0.00198326
0.000134359
0.00292916
-0.00048954
-0.00335097
-0.0015896
0.00436901
0.00350053
-0.00218405
-0.000494005
0.00228951
6.88133e-06
-0.0018249
0.00231385
0.000379898
-0.000953732
-9.68262e-05
0.000677067
-0.00117102
-0.000757129
0.00185975
0.000789141
-0.00181958
0.00148979
0.000263665
-0.00114645
-0.000926156
-0.00252535
0.00158636
0.00119268
-0.00133703
-0.000847352
-0.00166367
0.00087592
-0.000400775
-0.0021376
8.10632e-05
0.000625783
0.00163404
-0.00106707
-0.00263504
7.4592e-05
-0.00161909
0.000627965
0.00263021
-0.00109014
0.00108344
-0.00382438
0.00203293
0.00159581
-0.00270205
-8.39052e-05
-0.00159529
-0.00181695
0.00292508
-0.000811213
0.000826452
-0.000493061
-0.000156954
9.26843e-05
-0.000467877
-0.000280576
-0.000705388
-0.000236291
1.78233e-05
-2.52383e-05
-0.000221835
-0.000436971
0.000389867
0.000897687
-0.000834113
-5.48656e-06
-0.000366966
-0.00376868
0.0018171
0.00155462
0.000390997
-0.00511305
0.000809718
6.07319e-05
-0.0049596
0.000787744
-0.000119637
-0.00279703
0.00435928
-0.00351683
-0.00300779
-0.00426744
0.00289649
-0.000430089
-0.000996358
0.00275696
-0.00558335
0.00355399
0.00530809
-0.000521649
-0.00194079
0.00161613
-0.00176249
-0.000624937
0.000214928
0.000269581
-0.00180268
-0.000454196
0.000716769
-0.000285084
-0.000602228
0.000879285
0.00179371
-0.00161748
-0.00150963
0.00264108
-0.00107576
0.00255867
0.00409846
-0.00370386
-0.000312466
0.00181993
0.00270164
-0.000278623
-9.16121e-05
0.000989369
-0.00142385
0.00228814
0.00174599
-0.000199017
0.00139144
0.00148203
0.000880796
0.000557008
-0.00254328
0.000906242
0.00023553
0.00233342
-0.00029646
0.000918433
0.00208883
-0.000483483
0.00145819
-0.00050794
0.00131663
0.00140496
-0.00106778
-0.000195394
0.00138251
0.000629525
-0.000263722
0.0013944
0.000657043
-0.000364291
0.001392
0.000703507
-0.000383688
0.000769178
-0.000447156
0.000624707
0.000445304
0.000222882
-0.000389391
-0.000444568
-0.00103941
0.000176407
-0.000662555
-0.000607906
-0.000338491
0.00026774
-0.000360433
-0.000622503
0.000271186
-0.000313601
0.000192873
0.000155319
0.000314781
-2.00689e-05
-0.0014318
0.000823058
0.000177972
-8.4252e-06
-2.61471e-06
0.000199895
1.24636e-05
-3.15634e-05
0.000989244
-7.92729e-05
-0.000644772
-1.43862e-05
-0.000682177
-0.00140405
-8.65315e-06
-0.000320605
-0.00150047
-5.57811e-06
2.3007e-05
-0.00151309
-7.49009e-06
0.000220247
-0.000964842
-0.000476133
-1.57804e-05
-5.58668e-05
0.000252158
-0.00179701
-0.000226533
0.000806508
-0.000670158
0.000915096
-0.000967038
-0.00198255
0.000482249
-0.00149685
-0.00027179
-0.00106316
0.0012201
-0.000248703
-0.00179408
-0.000509384
0.00162598
-0.00038558
-0.000106119
-0.00066673
0.000341132
0.00199909
-0.000112546
-0.00130011
0.000306547
0.0017222
-0.000386899
-0.00339696
0.00143331
0.00121984
-0.00232103
-0.00303615
-0.000584159
-0.00307989
-0.00115217
-0.0034659
0.00169278
-0.000590911
-0.00148136
-0.00236873
0.00152727
-0.00114249
-0.000412386
0.000758025
-0.00329733
-0.00123895
0.00175307
-0.00250694
-0.000525413
0.00328386
-0.00348478
-0.00275161
-0.00125577
0.00498129
0.00529761
-0.000586352
-0.000303356
0.00204425
0.00298438
0.000571567
0.00380228
0.00103196
0.00229827
0.000964709
0.00134524
-0.000301413
0.00151401
0.000913549
0.000170016
0.0027226
-1.95358e-05
0.0033666
0.0025643
-0.00203223
-0.00117753
0.00303099
0.000559404
0.00393028
0.00323524
-0.00441578
0.000280031
0.00212084
-0.000278143
0.000719611
0.00136486
0.00286004
0.00168734
-0.0015245
-0.000902702
0.00461928
0.00217102
-0.000654014
-0.00327709
0.00439027
0.00216675
-0.00041317
0.00241936
0.000626771
-0.000829151
0.00267729
-0.000692334
0.00126396
0.00144883
-0.000539973
-0.000245427
0.00113262
0.000887976
-0.000326109
0.000265657
0.00191166
-0.000700553
0.00144014
0.000315173
0.000524543
0.000964217
-0.00105415
0.0010057
0.00170191
0.000746576
-0.000297775
0.000587111
0.000352726
0.00078765
-8.61688e-06
-0.00110279
0.000911138
-4.78258e-06
8.92368e-05
0.000478952
0.000230564
-0.000837066
0.000122468
0.00148873
-0.000978419
-4.68101e-05
0.00148032
-0.00021687
0.000217776
0.0014104
5.56478e-05
8.92251e-06
-8.51402e-06
-0.000322989
-0.000202428
-0.000994347
-0.000687493
-0.00103918
-0.00066132
0.000295734
-0.000355359
-0.000356798
-0.000622433
1.35869e-05
-0.000656268
3.37901e-05
-0.000192113
-4.45317e-05
-0.000249809
-0.000641333
3.58123e-05
0.000889328
-0.00182083
0.00082327
-0.00198265
-0.000974791
0.000495121
0.000621722
-0.00172492
-0.00124264
0.000363335
-0.00112419
0.000900225
7.53825e-06
-0.00125611
-0.000765772
0.000890259
-0.00125981
0.000911682
-0.00227458
1.1888e-05
0.00196747
-0.00143696
-0.00109361
9.9932e-06
0.000246253
-0.00034636
-0.00023436
-0.000551424
0.000256787
-4.84987e-05
-2.54884e-06
-0.00193814
0.00123077
0.00128769
0.000809348
0.000814289
-0.00215761
0.00115917
0.00200826
-0.000200827
-0.00115638
0.000471311
-0.00129372
0.00220849
9.84385e-05
-0.00108529
0.00188624
-0.000409967
-0.00148315
-0.000252536
0.000995811
-0.000346257
0.000477245
0.000989382
0.00062381
0.00120462
-0.00160736
-0.00126294
0.00118736
0.00137791
-0.000681498
-0.00247512
-0.000648073
-0.00149019
-0.000801631
0.000702369
-0.00088723
-0.00139113
-0.0010628
-0.00107245
-0.00236163
0.00128954
0.00119142
0.000702686
-0.000343665
-0.00179107
0.000378745
0.00243762
-0.000323757
-0.000536245
0.000143347
0.000153715
-0.000569692
-9.1118e-05
0.000510948
0.000488968
0.000178625
-0.000718417
0.00117882
0.000208418
-0.000413123
-0.000713044
0.000388943
1.90556e-05
-0.000775911
0.000178535
-0.000634976
0.000114867
-1.50234e-05
0.000576201
-0.000812717
-0.00117637
0.0007775
9.55193e-05
-0.00011604
0.00153008
-0.000143431
-0.00118762
-0.000103173
0.00137033
-0.000143312
0.000688556
0.000533844
0.000231936
0.000909302
-0.000305933
-0.000512147
0.000123907
0.00106535
0.000802761
-0.000220443
0.00102603
0.00102719
-0.00185052
-0.000349849
-0.000762249
0.00228226
0.000461012
-0.00210011
-0.00022756
2.92969e-06
0.000328122
-0.00141636
0.000135475
-0.000135398
-0.000828211
-2.18995e-05
0.00010697
-0.00112809
-0.000158858
-0.000215685
-4.33084e-05
0.000209228
-0.00100059
-0.0012827
6.7136e-05
-0.00126135
-0.000104216
0.000113861
-0.000290766
-0.000764224
-0.000116336
-8.78771e-05
-0.000892364
7.49131e-05
-0.000604481
8.97263e-05
-4.51621e-05
0.000614808
-0.000718433
-0.00126872
0.000768026
8.69093e-05
-0.000142193
0.00127439
0.000252054
-0.00122139
-0.000218913
0.00121617
2.7574e-05
-8.56279e-05
0.000554692
-0.000810511
0.0007515
0.000721243
0.000806489
-0.000224396
-4.99936e-05
2.4964e-05
-6.21553e-05
0.000809013
-0.000166096
-0.000739909
3.3914e-05
0.000631759
-3.95753e-07
7.27436e-05
0.000102635
-8.03974e-05
0.000414767
0.0001933
-0.000271119
0.000348599
0.000284622
-0.000258145
0.00104404
0.000126123
-0.00194219
0.000389234
0.00235083
0.00024636
0.000552184
0.00101433
-0.0010742
0.000833235
-5.98787e-05
0.00104786
0.000517221
0.000280085
-8.38769e-05
0.000535354
0.00197581
-0.00138113
0.000404332
-0.000776063
-0.000746323
0.00106721
-0.00043126
0.00051345
0.00109499
3.99251e-05
-0.00317602
0.00167944
0.000644104
0.0019468
-0.00302149
0.000405281
0.00080986
-0.00120081
0.00222587
-0.00284669
-0.000935091
0.00100739
-0.000279577
-0.0009542
0.00229395
-0.000391429
0.00266593
-0.000256224
-0.000499554
0.00208324
0.00225297
-0.00117106
-0.000555998
0.00139205
0.000670016
0.000512346
0.000416608
0.000814977
2.48275e-05
-0.00239401
0.0020661
1.64909e-05
-0.00034502
0.00115777
7.29594e-05
-0.000860613
-0.000353459
0.00230561
-0.00139184
0.000253012
-0.000918303
0.00197949
0.000557703
-0.0014114
-0.00107102
0.00100658
-0.00164032
-0.000292905
0.00106383
-0.00178968
-0.000536036
-0.000377904
0.00144942
-0.00140124
-0.000227013
0.00140829
-0.000640798
-0.000292546
0.000323783
0.000314731
0.00080566
-0.00020608
-1.72233e-05
-0.000687443
0.000163826
0.000632151
0.00138017
-0.000328268
-0.0013725
-0.000367036
-0.000336331
-0.000389716
0.000719057
-0.00129842
-0.000326312
-0.000309771
-0.00118948
-0.000271563
-0.000165347
0.000450794
-0.000974017
-0.000292344
-0.000373717
-0.00129696
-0.000264875
-0.00105242
-0.00145618
-0.000189145
-0.000100468
-0.00208107
-0.000660421
0.00201143
0.000333308
-0.00233927
-0.000105612
-0.000237018
0.000300784
0.00188122
0.000350571
-0.00173695
-0.000731374
-0.000364551
-0.000218231
0.000243244
-0.000548366
1.36122e-05
0.000436484
0.000523705
-0.00115712
0.000438852
-0.00251642
0.00211294
-6.71516e-05
-0.00160644
-0.0012873
0.000443293
-0.00144394
0.000369511
0.00195246
2.65706e-05
-0.00134324
-0.00200182
0.00380752
5.74655e-05
8.68303e-05
0.0035989
-0.0010622
0.00299023
0.00115168
0.000461243
0.000447791
0.00107471
0.00030405
0.00116192
0.00175437
0.00131586