/*--------------------------------*- C++ -*----------------------------------*\
  =========                 |
  \\      /  F ield         | OpenFOAM: The Open Source CFD Toolbox
   \\    /   O peration     | Website:  https://openfoam.org
    \\  /    A nd           | Version:  7
     \\/     M anipulation  |
\*---------------------------------------------------------------------------*/
FoamFile
{
    version     2.0;
    format      ascii;
    class       volVectorField;
    location    "18.9";
    object      U;
}
// * * * * * * * * * * * * * * * * * * * * * * * * * * * * * * * * * * * * * //

dimensions      [0 1 -1 0 0 0 0];

internalField   nonuniform List<vector> 
15191
(
(-0.0293537 0.21938 -0.112979)
(-0.0503038 0.068368 0.0492635)
(0.0127543 -0.369537 0.124299)
(-0.284046 -0.083943 -0.200859)
(-0.299773 0.277997 -0.133464)
(-0.264382 0.358981 -0.174464)
(-0.314695 -0.0551932 -0.203939)
(-0.242361 -0.00478101 -0.344217)
(-0.200985 0.159439 -0.151036)
(-0.139483 0.0354056 -0.10609)
(-0.100704 -0.179361 -0.116393)
(-0.0558216 -0.0826634 -0.201928)
(-0.0635894 -0.00643768 -0.220667)
(-0.00736391 0.020961 -0.240533)
(0.014155 0.045676 -0.292016)
(0.0145976 0.0197309 -0.234677)
(0.0158631 0.00516139 -0.229923)
(0.0156389 0.0101709 -0.233593)
(0.0114903 0.011283 -0.243284)
(0.00970855 0.0137873 -0.242585)
(0.00705743 0.0184501 -0.232442)
(0.00385508 0.0234675 -0.21767)
(0.0235829 0.0257901 -0.210006)
(0.00724276 0.00395366 -0.151886)
(0.00431754 -0.00363994 -0.149983)
(0.0147901 -0.0205344 -0.232444)
(0.0165908 0.000613117 -0.232359)
(0.0171472 -0.000979427 -0.232947)
(0.00732774 0.00100442 -0.22262)
(0.0095571 0.000654645 -0.217585)
(-0.000113679 8.58864e-05 -0.200697)
(-0.000193572 -0.00120772 -0.204696)
(-6.00673e-05 0.000751417 -0.204155)
(-0.00050969 -0.000832837 -0.204648)
(-0.00138443 0.00102567 -0.203634)
(-0.00338925 2.76201e-05 -0.204869)
(-0.00513121 -2.3479e-05 -0.204313)
(-0.00156716 -0.00180243 -0.197056)
(-0.000898121 0.000504508 -0.200174)
(0.00819651 0.000797578 -0.217642)
(0.00715004 0.00375142 -0.21898)
(0.00603895 0.00437994 -0.205822)
(0.00689623 0.00311943 -0.203359)
(0.000116694 0.00163551 -0.201128)
(-0.00030531 -3.97235e-05 -0.202774)
(-0.00147514 0.000687792 -0.20328)
(-7.92169e-05 0.000808568 -0.20232)
(0.000996384 0.00111814 -0.202355)
(0.000358244 0.000244609 -0.203082)
(-0.000610339 0.00118042 -0.203305)
(0.00101377 0.00269061 -0.19798)
(0.00320129 0.005955 -0.20236)
(0.00668284 0.00829248 -0.220313)
(0.00949834 0.00672412 -0.223403)
(0.0051571 0.00611335 -0.236686)
(0.00529413 0.0112876 -0.223172)
(0.00179356 0.00773691 -0.206583)
(0.00395825 0.00449089 -0.201353)
(-0.000248201 0.00169737 -0.202396)
(5.72648e-05 -0.000282029 -0.203529)
(-0.000833125 0.000467021 -0.203493)
(-0.001326 0.0013229 -0.202423)
(-0.00200288 -0.000765561 -0.201066)
(-0.00121621 -0.0050349 -0.20494)
(-0.000934188 -0.00434208 -0.206743)
(-0.0043914 -0.00159085 -0.195925)
(0.000503576 0.00797026 -0.20395)
(-0.00148149 0.00947999 -0.207121)
(0.00114672 0.0083782 -0.207836)
(0.000544274 0.00766424 -0.208185)
(-0.000209386 0.0274236 -0.217206)
(0.00035949 0.0282409 -0.216646)
(-0.023848 0.0264005 -0.212641)
(-0.0173265 0.0302689 -0.104896)
(-0.0163261 -0.0304199 -0.120632)
(0.0247724 -0.0264696 -0.209843)
(0.00981011 -0.0135607 -0.242492)
(0.0113192 -0.0102954 -0.242853)
(0.0153648 -0.00959557 -0.233563)
(0.0156105 -0.00468992 -0.229576)
(0.00724968 -0.00358769 -0.218773)
(0.00804819 -0.000720486 -0.217569)
(-0.000820238 -0.000423229 -0.200296)
(-0.000356136 -0.000353169 -0.204231)
(-0.000574251 0.000985302 -0.204578)
(-0.00087132 -0.000697004 -0.204828)
(-0.00066214 0.000550267 -0.204543)
(-0.00473442 9.04379e-05 -0.209354)
(-0.00806049 -0.000805372 -0.212325)
(-0.0146601 0.00312271 -0.214976)
(-0.0249645 -0.0197448 -0.225255)
(-0.0323436 -0.0111071 -0.217737)
(-0.017129 -0.0050121 -0.228432)
(-0.0141889 -0.00212319 -0.254232)
(-0.0164575 0.00284236 -0.245331)
(-0.0132536 -0.0011585 -0.242617)
(-0.0149706 -0.00333338 -0.233677)
(-0.0189489 -0.000655846 -0.225615)
(-0.0161671 -0.0116583 -0.231217)
(-0.0122426 -0.00944215 -0.254776)
(-0.0146263 -0.00164953 -0.240917)
(-0.0143851 -0.00385743 -0.225578)
(-0.0113126 -0.0103245 -0.251926)
(-0.0130521 -0.00457834 -0.238591)
(-0.0180942 -0.00268892 -0.228103)
(-0.0138409 -0.00754312 -0.232607)
(-0.00849823 -0.00900104 -0.225149)
(-0.00914799 -0.0127744 -0.24889)
(-0.0110426 -0.00866162 -0.23579)
(-0.0214334 -0.00758816 -0.226786)
(-0.00894913 -0.0199528 -0.228324)
(-0.00432688 -0.0135777 -0.2423)
(-0.00381024 -0.00634971 -0.258545)
(-0.0164414 -0.0141082 -0.234823)
(-0.0248453 -0.0183047 -0.21525)
(-0.0127029 -0.0317227 -0.223167)
(-0.0157559 -0.0220337 -0.223405)
(-0.0053136 -0.0127503 -0.245446)
(-0.0101872 -0.0123516 -0.247214)
(-0.00958621 -0.0140254 -0.258775)
(-0.00502816 -0.0161639 -0.233005)
(-0.00265453 -0.0159437 -0.24674)
(-0.00985332 -0.0135618 -0.260362)
(-0.0125992 -0.0177499 -0.238007)
(-0.00210473 -0.0202834 -0.233903)
(-0.00328523 -0.0154849 -0.240051)
(0.000470975 -0.015445 -0.255046)
(-0.00298872 -0.0154543 -0.257575)
(-0.00769953 -0.0204644 -0.237404)
(-0.000993912 -0.0247572 -0.225518)
(0.00682295 -0.0199753 -0.236617)
(0.0018196 -0.0158341 -0.257953)
(-0.00185595 -0.016589 -0.251697)
(0.000793402 -0.0144822 -0.247102)
(0.00399819 -0.0166962 -0.240566)
(0.00168127 -0.0206462 -0.232687)
(0.0129915 -0.0176858 -0.23833)
(0.0101797 -0.0139956 -0.260722)
(0.00328094 -0.0161994 -0.247412)
(0.00552201 -0.0157059 -0.232371)
(0.0110552 -0.0126642 -0.257761)
(0.00591762 -0.0141731 -0.244685)
(0.00378048 -0.0189845 -0.233573)
(0.0084186 -0.0143743 -0.237224)
(0.0102857 -0.00887511 -0.229795)
(0.0133411 -0.00983292 -0.252094)
(0.00977969 -0.0118772 -0.239855)
(0.00819026 -0.0208979 -0.226717)
(0.0213169 -0.00824657 -0.227188)
(0.0115263 -0.00917101 -0.236859)
(0.0095727 -0.013709 -0.250805)
(0.00884647 -0.00839812 -0.224886)
(0.0149752 -0.00903098 -0.236089)
(0.0186002 -0.00149132 -0.224734)
(0.013951 -0.00547495 -0.242704)
(0.0115246 -0.0111483 -0.248936)
(0.0156691 -0.00760529 -0.226084)
(0.0134524 -0.00583885 -0.229984)
(0.00973534 -0.00365541 -0.243271)
(0.0114726 -0.000552635 -0.240898)
(0.0103609 -0.0028881 -0.246114)
(0.0138522 -0.00662771 -0.230191)
(0.0132552 0.00245565 -0.237814)
(0.0159061 0.00203935 -0.244945)
(0.014544 -0.00108449 -0.252748)
(0.0183736 -0.00705323 -0.23136)
(0.0229649 0.00119987 -0.219938)
(0.0186517 0.00869567 -0.232766)
(0.0135401 0.0028713 -0.252212)
(0.0143009 -0.000374923 -0.249454)
(0.0138083 0.00155109 -0.23633)
(0.0168577 0.00210499 -0.224143)
(0.0132703 0.0138591 -0.222322)
(-0.013379 0.0176969 -0.238389)
(-0.0105264 0.0135722 -0.26011)
(-0.00342661 0.0162987 -0.248012)
(-0.00561224 0.015663 -0.231846)
(-0.0113302 0.0127853 -0.258406)
(-0.00610392 0.0140953 -0.243909)
(-0.00437302 0.0189844 -0.234966)
(-0.00814665 0.014348 -0.23743)
(-0.01034 0.00898265 -0.230393)
(-0.0128465 0.00980291 -0.252085)
(-0.00931563 0.0115585 -0.238847)
(-0.00782802 0.0214379 -0.22815)
(-0.0201263 0.00883221 -0.228913)
(-0.01349 0.00408242 -0.241277)
(-0.00608314 0.00365276 -0.257565)
(-0.0133948 0.0159183 -0.233501)
(-0.0179314 0.0241316 -0.212127)
(-0.0312894 0.0116162 -0.220514)
(-0.0202332 0.0151126 -0.217472)
(-0.0111381 0.00526147 -0.240242)
(-0.0113733 0.00946106 -0.240856)
(-0.0126374 0.00924889 -0.253074)
(-0.0148991 0.00305244 -0.225909)
(-0.014406 0.00115612 -0.241197)
(-0.0118732 0.00869559 -0.253163)
(-0.0162536 0.0122692 -0.233123)
(-0.0182606 0.000476834 -0.224652)
(-0.0137254 0.00237175 -0.23811)
(-0.0162264 -0.00118432 -0.246626)
(-0.014721 0.0036285 -0.255179)
(-0.0175327 0.00645889 -0.228639)
(-0.0245483 0.000409642 -0.223681)
(-0.0347137 0.000392876 -0.216612)
(-0.0330519 0.012963 -0.218099)
(-0.0251234 0.0224704 -0.225757)
(-0.0146949 -0.00282087 -0.215267)
(-0.0242473 0.000929924 -0.212216)
(-0.0274587 0.00474843 -0.211283)
(-0.0256143 0.0104836 -0.211564)
(-0.0350172 0.0201593 -0.218767)
(-0.0216004 0.0264248 -0.224598)
(-0.0124641 0.00155586 -0.215507)
(-0.0280865 0.00607894 -0.214943)
(-0.0312386 0.0179517 -0.212977)
(-0.0194092 0.0305051 -0.222174)
(-0.00972537 0.00106246 -0.214422)
(-0.0202756 0.0115684 -0.212206)
(-0.0212117 0.0133836 -0.212805)
(-0.0344462 0.0169066 -0.217098)
(-0.0355639 0.0208634 -0.231519)
(-0.0250111 0.0283011 -0.224712)
(-0.0181542 0.0330102 -0.220054)
(-0.0128673 0.0173472 -0.217761)
(-0.013229 0.00612771 -0.210406)
(-0.0196439 0.0158613 -0.213734)
(-0.0330124 0.023681 -0.213011)
(-0.0226675 0.035162 -0.213004)
(-0.0147929 0.0211563 -0.213789)
(-0.00727998 0.00955055 -0.214604)
(-0.0301913 0.0189405 -0.221181)
(-0.0147555 0.024646 -0.215102)
(-0.00774222 0.0141554 -0.217632)
(-0.0251936 0.0178536 -0.221285)
(-0.0197644 0.0314071 -0.217097)
(-0.0105938 0.0245392 -0.216968)
(-0.00366195 0.0111089 -0.218455)
(-0.0333578 0.020933 -0.227858)
(-0.0193705 0.0321954 -0.218946)
(-0.00787652 0.0283057 -0.21973)
(-0.00242456 0.0131841 -0.219727)
(-0.0289712 0.0227015 -0.231159)
(-0.0214743 0.0343914 -0.22538)
(-0.00237817 0.0099779 -0.217364)
(-0.00200442 0.00728834 -0.212516)
(-0.00350382 0.0071328 -0.214066)
(-0.0047347 0.00769832 -0.217532)
(-0.00251704 0.00608299 -0.209739)
(-0.00471208 0.00728625 -0.211211)
(-0.00659197 0.00774941 -0.213988)
(-0.00348218 0.00555205 -0.208802)
(-0.00647045 0.00789477 -0.21062)
(-0.00330615 0.00371571 -0.208381)
(-0.00705135 0.00640759 -0.209329)
(-0.00666935 0.00687321 -0.213583)
(-0.00469333 0.00644573 -0.209657)
(-0.00364013 0.0032014 -0.207002)
(-0.00161772 0.00240063 -0.206485)
(-0.0013364 0.00118523 -0.20582)
(-0.00246497 0.0018945 -0.207029)
(-6.38147e-05 0.000659962 -0.203952)
(0.000198788 -0.00111835 -0.20255)
(-0.000142525 -0.00138659 -0.203024)
(-0.00063126 -0.00089672 -0.203768)
(0.000444053 -5.36333e-05 -0.203337)
(0.000750667 -0.000861988 -0.202634)
(-0.00013385 -0.000671757 -0.202675)
(-0.00139113 -0.000659719 -0.203755)
(-0.000238264 8.03876e-05 -0.20326)
(0.000260184 0.000343679 -0.202338)
(-0.00198089 0.00112024 -0.201768)
(-0.00502731 1.63246e-05 -0.204614)
(-0.00329639 -1.73388e-05 -0.205105)
(-0.00131662 -0.0010608 -0.20381)
(-0.000543809 0.000783197 -0.204819)
(-0.00690952 0.000662167 -0.209806)
(-0.00627112 0.00101929 -0.214578)
(-0.00898025 0.000961403 -0.213701)
(-0.00666573 0.00128282 -0.209969)
(-0.00677972 0.00257492 -0.211206)
(-0.00700947 0.00364887 -0.213463)
(-0.00558308 0.00208189 -0.208309)
(-0.0070236 0.00342049 -0.209404)
(-0.00621265 0.00534641 -0.21115)
(-0.0126725 0.00827652 -0.215284)
(-0.00747338 0.00438864 -0.208448)
(-0.0034406 0.00317244 -0.207681)
(-0.00257114 0.00134337 -0.205879)
(-0.00147513 0.000991556 -0.20531)
(-0.00175613 0.0021449 -0.206214)
(-0.00505339 0.00254656 -0.206392)
(-0.00390679 0.000934437 -0.20651)
(-0.00249265 0.00135762 -0.205806)
(-0.00114699 0.000473774 -0.200377)
(-0.000745624 -0.000483915 -0.190107)
(-0.00619801 0.00403734 -0.192482)
(-0.00535754 0.00276621 -0.198733)
(-0.00807592 0.00491622 -0.199228)
(-0.0120821 0.00667913 -0.198453)
(-0.0141917 0.0152517 -0.199885)
(-0.0208848 0.0196071 -0.196942)
(-0.0206222 0.0214638 -0.194109)
(-0.0320289 0.0205691 -0.199255)
(-0.0210291 0.00811453 -0.196117)
(-0.0242193 0.0143559 -0.180992)
(-0.0220012 0.0174856 -0.16139)
(-0.0170991 0.0181641 -0.16337)
(-0.019693 0.0179031 -0.149661)
(-0.0167474 0.0162039 -0.134676)
(-0.01395 0.0154627 -0.115819)
(-0.0122371 0.0145112 -0.111677)
(-0.0137939 0.0102302 -0.097787)
(-0.0105714 0.0121692 -0.0766517)
(0.000908063 0.0231365 -0.0685772)
(-0.0107972 0.0109147 -0.0415011)
(0.00289898 -0.015538 -0.0515306)
(-0.0177959 -0.0104424 -0.0348739)
(-0.0335881 0.00845926 -0.0356183)
(-0.0115099 0.0538881 -0.104788)
(0.00167617 0.0732182 -0.0986066)
(0.0230211 0.0782398 -0.149818)
(0.0220739 0.0413443 -0.0672944)
(-0.0108916 0.0755294 0.0039453)
(-0.0823687 0.0518359 -0.0925741)
(0.0359536 -0.0123469 -0.0142912)
(0.0740086 -0.045568 -0.106427)
(-0.0678889 0.0437538 -0.128283)
(-0.0958053 0.0459747 -0.157379)
(-0.118601 0.0861405 -0.353511)
(-0.0393996 0.133984 -0.206076)
(0.0490739 -0.10731 -0.277046)
(-0.0226757 -0.0718365 -0.203733)
(0.0132832 -0.0287464 -0.0869066)
(-0.0559548 -0.0673157 -0.118662)
(-0.0382557 -0.0447265 -0.0770152)
(-0.011798 -0.00160073 -0.0666317)
(-0.0411853 -0.0240835 -0.0289022)
(-0.0317363 0.0315179 -0.0925946)
(-0.0105222 0.0317519 -0.125059)
(-0.0213493 0.0278417 -0.13069)
(-0.013527 0.030832 -0.0900021)
(-0.016235 0.0131533 -0.0839116)
(-0.0110075 0.00993498 -0.109037)
(-0.026302 0.0132492 -0.0923149)
(-0.0368054 -0.00197694 -0.0972667)
(-0.030943 0.0126794 -0.0903847)
(-0.0387312 -0.035042 -0.0729602)
(-0.0328537 -0.063864 -0.0486811)
(-0.0573284 -0.0308361 -0.0685306)
(-0.0716293 -0.0405387 -0.030384)
(-0.0595142 -0.0544 0.00140328)
(-0.122816 0.00753276 -0.0462312)
(-0.157771 -0.0782619 -0.213234)
(-0.0555204 -0.0959553 -0.14412)
(-0.0828973 -0.126119 -0.130278)
(-0.0756263 -0.0872802 -0.158657)
(-0.0621349 -0.0926654 -0.179126)
(-0.0308486 -0.0562187 -0.0995707)
(-0.0474205 -0.0147055 -0.0716187)
(-0.0568201 -0.0603782 -0.0993039)
(-0.0334392 -0.0751952 -0.102534)
(-0.0470442 -0.0295941 -0.0804631)
(-0.0661697 -0.0777048 -0.0582494)
(-0.142295 -0.0733358 -0.142019)
(-0.150583 -0.0910536 -0.192207)
(-0.04344 0.00636623 -0.0269598)
(-0.0755845 -0.109725 -0.101541)
(-0.0666134 0.0645271 -0.051169)
(-0.156833 -0.0748549 -0.131707)
(-0.0535738 -0.0649178 -0.248093)
(-0.101238 0.0548631 -0.522818)
(-0.140831 0.119914 -0.293519)
(-0.0666967 0.143726 -0.0600101)
(-0.0440552 0.0120287 -0.203109)
(0.00700301 -0.0030164 0.0253282)
(-0.00672964 -0.0323781 -0.212278)
(-0.069988 -0.176551 0.0572313)
(-0.120261 -0.12428 -0.0275997)
(-0.152863 -0.0852826 -0.151632)
(-0.096662 -0.0106855 -0.200056)
(-0.0955765 -0.0606788 -0.0908086)
(0.0413842 -0.0889233 -0.0136812)
(-0.0746613 0.0742146 -0.0106782)
(-0.141171 -0.0569069 -0.283926)
(-0.147999 -0.0647841 -0.344888)
(-0.11491 -0.0532371 -0.188104)
(-0.046045 0.0384847 -0.13103)
(-0.109512 0.0139303 -0.173648)
(-0.0323994 -0.00626484 -0.0583962)
(-0.105446 -0.0086654 -0.0196789)
(-0.0423424 0.0536259 0.058112)
(0.000459148 -0.00190879 0.0814272)
(-0.0836509 0.0224514 -0.0434254)
(-0.114998 -0.0370231 -0.0727378)
(-0.118827 -0.0492275 -0.124316)
(-0.0948693 -0.0178754 -0.25633)
(-0.155859 -0.0171424 -0.422855)
(-0.128631 -0.0419927 -0.243034)
(-0.11942 -0.0769562 -0.127871)
(-0.0681598 -0.0164747 -0.112504)
(-0.0273402 -0.00494623 -0.122643)
(-0.00900635 -0.0506804 -0.0509362)
(0.0142777 0.0572721 -0.0124323)
(-0.0121442 0.0331406 -0.094366)
(-0.0104134 0.0682717 -0.135761)
(-0.0209831 0.064496 -0.132614)
(-0.0409807 0.0292989 -0.0823557)
(-0.0265876 0.00294623 -0.047671)
(-0.0164782 0.0190222 -0.0975563)
(-0.00284933 0.0428091 -0.0847202)
(-0.0208171 0.0139022 -0.00456487)
(-0.0513146 -0.0177491 -0.0660023)
(-0.0405403 0.0143846 -0.0871972)
(-0.0194395 0.0125972 -0.0417534)
(0.0017574 -0.0211562 -0.0593414)
(-0.00350709 -0.000936624 -0.0669931)
(-0.0120317 -0.0029721 -0.0978941)
(-0.0245581 -0.0104929 -0.0782227)
(-0.0201292 0.00222157 -0.066817)
(-0.0308118 -0.00600573 -0.0605359)
(-0.0180464 -0.000946906 -0.0333212)
(-0.017843 0.00551812 -0.0652922)
(-0.0158682 0.00715607 -0.0781683)
(-0.0162838 0.00377467 -0.0943449)
(-0.0234187 -0.0036794 -0.0847377)
(-0.0248046 -0.00360278 -0.0725572)
(-0.0250469 -0.0108871 -0.080165)
(-0.0294454 -0.00899259 -0.079048)
(-0.0251578 -0.00914646 -0.095068)
(-0.0250049 -0.00895991 -0.0884421)
(-0.0227097 -0.00720455 -0.0903205)
(-0.0240324 -0.00151703 -0.0904148)
(-0.0222526 0.00265678 -0.100617)
(-0.0202231 0.00398985 -0.0960491)
(-0.0179859 0.00925959 -0.100034)
(-0.0178236 0.0110847 -0.117553)
(-0.016708 0.0123907 -0.116852)
(-0.0177501 0.01339 -0.134206)
(-0.0196778 0.0167104 -0.149987)
(-0.0197798 0.0133688 -0.165334)
(-0.02108 0.0137324 -0.146181)
(-0.0196368 0.0123429 -0.130305)
(-0.019287 0.011054 -0.124817)
(-0.0203814 0.00808025 -0.11306)
(-0.0224554 0.00237002 -0.110347)
(-0.0220951 0.00754504 -0.124573)
(-0.0206463 0.0121269 -0.135805)
(-0.0224113 0.0158524 -0.137642)
(-0.0245735 0.0158622 -0.157825)
(-0.0189819 0.019918 -0.159744)
(-0.0224704 0.0104043 -0.179072)
(-0.0170623 0.0183221 -0.176289)
(-0.0199128 0.0170469 -0.193668)
(-0.0203264 0.0118593 -0.207875)
(-0.0146933 0.0070252 -0.229845)
(-0.00962384 0.00539797 -0.242213)
(-0.0237056 0.00405455 -0.212791)
(-0.0220153 0.0127536 -0.195833)
(-0.0124351 0.0205494 -0.17057)
(-0.0165565 0.0232713 -0.199005)
(-0.0296641 0.0108077 -0.205494)
(-0.0261567 0.00903619 -0.173186)
(-0.0241587 0.0104531 -0.184448)
(-0.0248325 0.00948191 -0.182948)
(-0.0280727 0.00987185 -0.169926)
(-0.0254894 0.00871782 -0.148355)
(-0.0236283 0.00789929 -0.135839)
(-0.0220262 0.00426789 -0.12264)
(-0.0212251 0.00243545 -0.121566)
(-0.0231621 -0.00189149 -0.115043)
(-0.0221586 -0.00756899 -0.099576)
(-0.0225294 -0.00308704 -0.0999133)
(-0.0178714 0.000641535 -0.102251)
(-0.0150158 0.0044445 -0.102676)
(-0.0106392 -0.00441354 -0.0889011)
(-0.0189435 -0.0152225 -0.057825)
(-0.019446 0.0123014 -0.0703463)
(-0.0127052 0.0137408 -0.0380693)
(-0.00884232 -0.0110968 -0.0503293)
(-0.0233324 0.00784172 -0.02348)
(-0.0468849 -0.013237 -0.0933342)
(-0.0724612 0.0133878 -0.118691)
(-0.126635 -0.00379295 -0.295648)
(-0.0981444 -0.0160076 -0.313078)
(-0.123575 -0.129629 -0.200405)
(-0.247384 -0.111124 -0.413616)
(-0.174668 -0.188402 -0.341524)
(-0.157632 -0.162656 -0.319547)
(-0.00205523 -0.0685526 -0.278886)
(-0.085667 -0.178807 0.0358676)
(-0.102762 -0.148033 0.0456339)
(-0.136103 -0.189118 -0.0724047)
(-0.0674606 -0.0791327 -0.0493574)
(-0.0375753 -0.0453396 -0.104573)
(-0.0303291 -0.0241851 -0.0930234)
(-0.0284054 -0.00818818 -0.107763)
(-0.0388558 0.0169676 -0.0840596)
(-0.0524019 -0.0177154 -0.11207)
(-0.0207006 -0.0160729 -0.00410962)
(0.0237107 -0.073529 -0.0124194)
(-0.0182375 0.0256445 0.0120865)
(-0.0411476 -0.0461872 -0.107666)
(-0.0317173 -0.0128597 -0.0902425)
(-0.0314226 -0.0207467 -0.111547)
(-0.0347442 -0.0015876 -0.101423)
(-0.0316921 -0.00908795 -0.0776558)
(-0.0267667 -0.0700663 -0.118053)
(-0.0169522 -0.0266103 -0.123435)
(-0.0107316 -0.0118604 -0.0983602)
(-0.019508 -0.0218545 -0.105309)
(-0.0168576 0.0143222 -0.108961)
(-0.0192699 -0.00641202 -0.0970303)
(-0.0302057 -0.0161819 -0.0859474)
(-0.0373266 -0.0197401 -0.0970832)
(-0.0409769 -0.0789248 -0.0515346)
(-0.0418581 -0.072613 -0.116352)
(-0.0323441 -0.0712489 -0.137654)
(-0.0742147 -0.10104 -0.141153)
(-0.0887042 -0.158967 -0.135742)
(-0.112725 -0.16878 -0.153268)
(-0.0679596 -0.140877 -0.00880901)
(-0.117825 -0.199498 -0.0663498)
(-0.114755 -0.197179 -0.0100578)
(-0.118468 -0.273272 0.0893289)
(-0.0846887 -0.212565 -0.0884497)
(-0.142812 -0.216369 -0.261545)
(-0.149697 -0.147199 0.0109482)
(-0.0888418 -0.270288 0.0668797)
(-0.0777342 -0.275019 0.324559)
(-0.0957682 -0.202767 0.239163)
(-0.103854 -0.148723 0.107984)
(-0.0280595 -0.17341 0.0423074)
(-0.0965869 -0.171833 0.0162251)
(-0.144801 -0.228942 -0.0661515)
(-0.112373 -0.162356 0.0139631)
(-0.083464 -0.131006 -0.0447998)
(-0.171534 -0.0540151 -0.0856135)
(-0.0135 -0.0917846 -0.066581)
(-0.163544 -0.0657512 0.00888272)
(-0.0416833 -0.173653 0.220979)
(-0.1211 -0.27318 0.0981754)
(-0.100844 -0.255014 -0.219086)
(-0.16509 -0.126629 -0.206019)
(-0.0384135 -0.0346241 -0.0555027)
(0.000542536 0.0686069 -0.09354)
(-0.0364723 -0.0098181 -0.149583)
(-0.0368126 -0.0160861 -0.0397811)
(0.0345293 0.0215651 0.0504782)
(-0.0160657 0.050938 0.0922799)
(0.0703692 -0.0912464 0.245869)
(0.0559715 -0.0349007 0.335089)
(0.0267609 -0.0616409 0.473499)
(-0.0471791 -0.132383 0.534443)
(0.0134816 -0.27943 0.70045)
(-0.0459496 -0.294108 0.519581)
(-0.0555064 -0.244082 0.45636)
(-0.0830357 -0.141234 0.366795)
(0.0868395 -0.0992449 0.106406)
(-0.0244585 -0.0661222 0.169736)
(-0.142049 -0.136788 -0.0653026)
(-0.0948796 -0.166949 -0.0614793)
(-0.0940291 -0.218118 -0.236034)
(-0.051311 -0.149477 -0.157078)
(-0.0167205 -0.100349 -0.106251)
(-0.0658693 -0.216071 -0.178342)
(-0.0867537 -0.257369 -0.269591)
(-0.0326913 -0.138859 -0.144309)
(-0.0514324 -0.293861 -0.00785022)
(-0.0584615 -0.223999 -0.0836695)
(-0.0467873 -0.118677 -0.0771736)
(-0.0431963 -0.109828 -0.104042)
(-0.0274597 -0.0409484 -0.0897814)
(-0.0186918 -0.0211424 -0.0956036)
(-0.0233583 -0.0317854 -0.104995)
(-0.0390873 -0.034445 -0.0998148)
(-0.0316982 -0.0202059 -0.143775)
(-0.0412273 -0.0246535 -0.142707)
(-0.0337624 -0.0468496 -0.0799976)
(-0.0330334 -0.036497 -0.103232)
(-0.0304776 -0.0241652 -0.0744532)
(0.0110005 -0.0328476 -0.106092)
(-0.00845435 -0.0396812 -0.0455029)
(-0.00808424 -0.0169369 0.0499476)
(-0.0453007 0.00179356 -0.0573782)
(-0.0454291 0.00133478 -0.136484)
(-0.0264535 0.00424101 -0.127657)
(-0.00172741 0.0156953 -0.122726)
(0.00976624 -0.0257325 -0.182145)
(-0.0116004 -0.0769633 -0.202508)
(-0.022288 -0.106593 -0.212133)
(0.07104 0.00368022 -0.0532686)
(0.0130849 -0.0954576 -0.120663)
(-0.0324886 -0.0481405 -0.0982301)
(-0.0500904 -0.103678 -0.0994419)
(-0.0196796 -0.151386 -0.053983)
(-0.0392234 -0.157243 -0.0640745)
(-0.0309591 -0.246851 0.0439127)
(-0.0494258 -0.276796 0.0516461)
(-0.0996547 -0.244163 -0.0478892)
(-0.108538 -0.208927 -0.230312)
(-0.150944 -0.127402 -0.303698)
(-0.0826259 -0.0891223 -0.255188)
(-0.133474 -0.1127 -0.401018)
(-0.0638191 -0.111453 -0.207097)
(-0.151363 -0.167969 -0.224079)
(-0.147073 -0.178175 -0.141586)
(-0.127029 -0.277588 -0.196117)
(-0.0277256 -0.307405 0.554019)
(0.0756706 -0.30473 0.466046)
(0.0257645 -0.157777 0.562696)
(0.0332925 -0.212943 0.316722)
(-0.010549 -0.186902 0.160189)
(0.00889875 -0.31786 0.170271)
(-0.113464 -0.248858 -0.300725)
(-0.066025 -0.250134 -0.255787)
(-0.0701337 -0.206463 -0.345436)
(-0.16236 -0.181262 -0.231764)
(-0.17886 -0.18006 -0.393677)
(-0.116117 -0.204641 -0.428446)
(-0.0778609 -0.179748 -0.458147)
(-0.0481654 -0.176047 -0.225542)
(0.0498421 -0.18969 0.0121488)
(-0.00179131 -0.208108 0.142851)
(0.0151093 -0.0726605 0.114876)
(-0.0367982 -0.219344 0.00389126)
(-0.00780622 -0.158746 -0.0326678)
(0.0333073 -0.105283 -0.0151144)
(-0.0222865 -0.0999513 -0.0743756)
(-0.0299788 -0.0663084 -0.167684)
(0.0128371 -0.0281638 -0.0834195)
(-0.0512277 0.0026357 -0.0347614)
(-0.049219 -0.00147214 -0.039445)
(-0.0100053 0.0826126 -0.200265)
(0.00963264 0.027459 -0.17835)
(-0.00261867 -0.0145869 -0.122734)
(-0.0265995 -0.0026615 -0.128975)
(-0.045632 0.00114854 -0.137654)
(-0.0411706 0.0270971 -0.141735)
(-0.0333343 0.0495945 -0.0808389)
(-0.045852 0.00165132 -0.0571531)
(-0.00884069 0.0192581 0.0519527)
(0.0717164 -0.0065589 -0.0494339)
(-0.0228547 0.108421 -0.213299)
(0.0136048 0.0968082 -0.120944)
(-0.0296422 0.0695222 -0.168092)
(0.0118739 0.0295427 -0.0860578)
(0.0430381 0.0204104 -0.0759088)
(0.0446996 -0.0194307 -0.0757682)
(0.073584 -0.0577477 -0.125693)
(-0.029662 -0.107957 -0.238606)
(-0.0151968 -0.177254 -0.153771)
(-0.04615 -0.0366974 0.0269374)
(0.0363141 -0.189831 0.0130843)
(0.0264916 -0.188129 0.0187196)
(0.00875414 -0.160253 0.0435475)
(0.00565541 -0.168984 -0.10012)
(-0.021513 -0.175204 -0.0836632)
(-0.0552866 -0.183423 -0.142879)
(-0.0648935 -0.187238 -0.118547)
(-0.114126 -0.191401 -0.250259)
(-0.0755165 -0.112349 0.0967163)
(0.00051302 -0.0657461 0.0732184)
(-0.0982418 -0.12736 -0.291383)
(-0.0706107 -0.0647459 -0.114869)
(-0.117042 -0.187297 -0.117499)
(-0.0294441 -0.231585 0.000876002)
(-0.0264948 -0.169004 0.0747877)
(-0.0613303 -0.208736 0.0285599)
(0.0136678 -0.117487 0.0704181)
(-0.0286928 -0.0557552 0.0429623)
(0.0292917 -0.0439513 0.0996221)
(0.00785039 -0.057077 -0.029559)
(-0.0205971 -0.0298019 -0.0994612)
(-0.0219044 -0.0103949 -0.0743537)
(-0.0195235 -0.00341531 -0.104224)
(-0.0123703 0.00902559 -0.109567)
(-0.0238074 -0.0148284 -0.0915651)
(-0.019697 0.00571588 -0.117878)
(-0.0263074 -0.0328344 -0.124684)
(-0.0105476 -0.0410074 -0.117541)
(-0.0010007 -0.120489 -0.0187758)
(-0.0189419 -0.10546 -0.0838981)
(0.00402428 -0.108861 -0.0815185)
(-0.0169654 -0.0383272 -0.0989881)
(-0.0297918 -0.013815 -0.146367)
(-0.0343882 0.00389037 -0.127161)
(-0.0113148 0.0165499 -0.109978)
(-0.0156492 0.0101337 -0.122123)
(-0.0146835 0.0120063 -0.106045)
(-0.0136709 0.00903023 -0.109153)
(-0.0200769 0.00513887 -0.106245)
(-0.0206202 0.00131215 -0.104695)
(-0.0229947 -0.000113335 -0.101987)
(-0.0207081 -0.00231487 -0.10481)
(-0.0236722 -0.00163966 -0.0992669)
(-0.0212286 0.00149128 -0.101045)
(-0.0186464 0.0114289 -0.109088)
(-0.0185184 0.0164472 -0.109834)
(-0.012583 0.0246728 -0.103666)
(-0.0181147 0.0180152 -0.10964)
(-0.00482023 0.0162774 -0.0483195)
(-0.00180593 0.000341525 -0.0758617)
(-0.0144274 0.00506917 -0.0382167)
(0.0351532 -0.042295 0.00807915)
(-0.00439423 -0.109573 0.0572993)
(0.0144178 -0.0690478 0.193898)
(-0.0620968 -0.105368 0.0885938)
(-0.132001 -0.232751 0.00554762)
(-0.00833369 -0.0801126 0.0061275)
(0.00353659 -0.118835 0.159836)
(-0.105935 -0.0339015 -0.0324201)
(0.019832 -0.0419997 0.0369919)
(0.0258716 -0.0546359 0.0956492)
(0.11332 -0.141605 0.114429)
(0.0983352 -0.140435 0.223442)
(-0.0115224 -0.131128 0.258034)
(-0.021373 -0.117335 0.125634)
(0.0126655 -0.213345 0.0616598)
(0.0381659 -0.212564 0.116767)
(-0.0464991 -0.20135 0.121283)
(0.0457606 -0.111692 -0.0491937)
(0.130437 -0.112606 0.0596133)
(0.120958 -0.00579201 -0.226176)
(-0.0979713 0.0588869 -0.0271595)
(-0.0982101 -0.0639045 -0.034898)
(-0.0301921 0.10565 -0.243688)
(0.0738746 0.0554293 -0.125102)
(0.0331576 0.100969 -0.0175989)
(-0.0223606 0.101981 -0.0770991)
(-0.0191661 0.151455 -0.0564132)
(-0.0483035 0.103906 -0.0967769)
(-0.0331885 0.0478616 -0.0947822)
(0.00920387 0.0309792 -0.104935)
(-0.00969729 0.0422314 -0.0495922)
(-0.0310186 0.0262531 -0.0766443)
(-0.0193247 0.022907 -0.0950675)
(-0.0238865 0.0330858 -0.103811)
(-0.0223812 0.0212841 -0.100694)
(-0.0196436 0.00799249 -0.0973254)
(-0.0308883 0.0177288 -0.0867437)
(-0.0278297 0.0423395 -0.0891173)
(-0.0425786 0.109021 -0.102298)
(-0.0385886 0.155994 -0.0632485)
(-0.0302382 0.247364 0.0442732)
(-0.00820145 0.157602 -0.0346304)
(-0.0378193 0.220176 0.011115)
(-0.0143634 0.171109 -0.153782)
(-0.0426802 0.034307 0.023368)
(0.128307 0.100951 0.05688)
(0.120719 0.000256391 -0.233709)
(-0.0334618 0.0739867 -0.197449)
(-0.0355287 -0.0826619 -0.185376)
(-0.14372 -0.119355 0.0112355)
(-0.0547569 -0.15294 0.285782)
(-0.0874706 -0.201341 0.246513)
(0.00758867 -0.121351 0.374395)
(0.123326 -0.0776459 0.294937)
(0.0890639 -0.145156 0.27842)
(0.132469 -0.127958 0.09785)
(0.114939 -0.103315 -0.0571487)
(0.023541 -0.119011 -0.0524949)
(0.0270075 -0.151132 -0.0216726)
(-0.0113168 -0.0760684 -0.12983)
(-0.0151675 -0.0556783 -0.111057)
(0.0575922 0.0123063 -0.0665459)
(0.0682284 0.0196626 0.174872)
(0.0568583 -0.0186443 0.0890015)
(0.0375412 -0.0415424 0.197327)
(0.0552641 -0.0236288 0.16919)
(0.0180976 -0.00780837 0.0195089)
(0.00443899 0.0194928 -0.0084401)
(0.0528951 -0.006469 0.0162559)
(0.0496868 -0.00970867 0.116928)
(0.0181539 -0.0649175 -0.0542675)
(0.0522814 -0.0493655 0.0485865)
(-0.0373956 0.0156787 -0.211439)
(-0.0289321 -0.00153194 -0.181583)
(0.0153927 0.00205411 -0.18781)
(-0.0189332 0.000633416 -0.170273)
(-0.0424371 0.0653772 -0.175721)
(-0.0242007 0.0131863 -0.184218)
(0.0214555 -0.00948984 -0.0740101)
(0.0208549 -0.0901574 -0.0274969)
(0.0278971 0.0160337 -0.0107497)
(0.0156936 -0.0607844 -0.0444702)
(0.122546 -0.023489 -0.154123)
(0.145311 -0.0185161 0.0695186)
(0.150525 -0.0534843 0.325606)
(0.089925 -0.148398 0.346115)
(0.0980453 0.141876 0.339642)
(-0.0528735 0.143766 0.276256)
(-0.14308 0.116023 -1.11559e-05)
(-0.054264 0.202156 0.128316)
(0.0425134 0.105931 -0.050674)
(0.0119871 0.164469 0.0538111)
(0.0294672 0.18572 0.0297118)
(0.0261353 0.064586 0.126468)
(0.0414205 0.186863 0.00499467)
(0.0631445 0.076075 -0.00458667)
(0.0490578 -0.0375564 -0.0971055)
(0.050425 0.0317108 -0.0916462)
(0.0619204 -0.0831491 -0.000116863)
(0.0752439 -0.016851 -0.094025)
(0.0223141 0.0521934 0.0270672)
(-0.0778029 0.0774509 0.149121)
(-0.0375704 -0.0152154 -0.000613284)
(0.0756902 -0.164651 -0.0340026)
(0.167866 -0.112529 -0.116959)
(0.0636225 0.0172287 -0.359443)
(0.136292 -0.00228371 -0.203724)
(-0.0126504 0.00765047 -0.119441)
(0.0648363 -0.0793226 -0.0303252)
(-0.00441396 -0.0289465 -0.0988281)
(-0.0119431 0.0302516 -0.0391448)
(-0.0210994 0.0882811 -0.074239)
(-0.00677189 0.109645 -0.0565845)
(-0.0194168 0.0709722 -0.0811075)
(-0.0489403 0.0688232 -0.173532)
(-0.0307478 0.0709286 -0.100649)
(-0.024959 0.0127866 -0.143336)
(-0.0149627 0.0212559 -0.119082)
(-0.00146044 -0.0295358 -0.0766143)
(-0.00558047 -0.0261058 -0.0192762)
(0.0060489 -0.00331877 -0.0237819)
(-0.00609407 0.0265629 -0.0674198)
(-0.0131868 0.0153911 -0.0905828)
(-0.0194099 0.01776 -0.107618)
(-0.0198117 0.00963935 -0.102623)
(-0.0189335 0.00220104 -0.108276)
(-0.0180053 0.00526972 -0.097978)
(-0.0154133 -0.00145802 -0.0884703)
(-0.00558589 -0.00892998 -0.0726262)
(-0.00871436 -0.00478773 -0.08529)
(0.00524038 -0.00999716 -0.0853884)
(-0.00811844 -0.00979304 -0.0819906)
(-0.0129889 0.00234596 -0.0978249)
(-0.0196518 0.00693407 -0.100463)
(-0.0235404 0.0350969 -0.0991127)
(-0.0165716 0.0524257 -0.111324)
(-0.0180261 0.0367767 -0.0833758)
(-0.0338032 0.0590412 -0.0521604)
(-0.0531369 0.00729107 -0.020019)
(-0.0534307 0.0202709 -0.0485552)
(-0.0575116 0.0309288 -0.0428982)
(-0.0128113 0.0444781 -0.081828)
(-0.0130173 -0.044768 -0.0828916)
(0.0274364 -0.0178749 -0.0137274)
(0.0177447 0.0604562 -0.0449944)
(0.117472 0.0235229 -0.14759)
(0.1435 0.0253596 0.0551224)
(0.157445 0.0459414 0.317543)
(0.133572 0.0861609 0.325317)
(0.0174587 0.137024 0.397865)
(-0.0912197 0.203087 0.259341)
(0.0074292 0.216643 0.0909893)
(0.0355491 0.218974 0.134713)
(-0.0212315 0.179921 -0.0964326)
(0.0106417 0.172537 -0.0998725)
(0.0494468 0.188747 0.0154232)
(-0.000411904 0.211032 0.142853)
(-0.0511971 0.279053 0.0503727)
(-0.101283 0.241787 -0.0445263)
(-0.109741 0.206715 -0.22762)
(-0.0314394 0.131659 -0.137197)
(-0.0512959 0.295734 -0.00225881)
(-0.0581911 0.224184 -0.0808844)
(-0.0471205 0.119189 -0.076775)
(-0.0414325 0.0802634 -0.0560472)
(-0.0372835 0.0209963 -0.0987937)
(-0.0196423 0.0230269 -0.10532)
(-0.0171899 0.0168756 -0.100741)
(-0.0188265 0.0184045 -0.0902889)