/*--------------------------------*- C++ -*----------------------------------*\
  =========                 |
  \\      /  F ield         | OpenFOAM: The Open Source CFD Toolbox
   \\    /   O peration     | Website:  https://openfoam.org
    \\  /    A nd           | Version:  7
     \\/     M anipulation  |
\*---------------------------------------------------------------------------*/
FoamFile
{
    version     2.0;
    format      ascii;
    class       volScalarField;
    location    "18.9";
    object      alpha.water;
}
// * * * * * * * * * * * * * * * * * * * * * * * * * * * * * * * * * * * * * //

dimensions      [0 0 0 0 0 0 0];

internalField   nonuniform List<scalar> 
15010
(
1.00162
1.00159
1.00156
1.00152
1.00148
1.00144
1.00151
1.00157
1.00153
1.00165
1.00168
1.00162
1.00156
1.00159
1.00162
1.00166
1.00168
1.00169
1.00167
1.00159
1.00159
1.00156
1.00152
1.00148
1.00144
1.00141
1.00148
1.00155
1.00155
1.00166
1.00167
1.0016
1.00153
1.00155
1.00158
1.00162
1.00165
1.00165
1.00163
1.00155
1.00153
1.00148
1.00144
1.0014
1.00138
1.00145
1.00154
1.00157
1.00168
1.00166
1.00157
1.0015
1.00152
1.00154
1.00158
1.00161
1.00159
1.00159
1.00152
1.0015
1.00144
1.00139
1.00136
1.00134
1.00141
1.00151
1.00159
1.0017
1.00163
1.00153
1.00146
1.00148
1.0015
1.00154
1.0015
1.00154
1.00155
1.00149
1.00146
1.0014
1.00135
1.00131
1.00129
1.00136
1.00147
1.0016
1.00171
1.0016
1.00149
1.00141
1.00143
1.00145
1.00141
1.00145
1.0015
1.00151
1.00145
1.00142
1.00136
1.0013
1.00127
1.00124
1.00131
1.00142
1.00161
1.00171
1.00155
1.00144
1.00136
1.00137
1.00132
1.00135
1.0014
1.00146
1.00148
1.00142
1.00138
1.00131
1.00126
1.00121
1.00119
1.00126
1.00137
1.0016
1.00171
1.0015
1.00138
1.0013
1.00125
1.00126
1.0013
1.00135
1.00142
1.00144
1.00138
1.00134
1.00126
1.00121
1.00116
1.00113
1.0012
1.0013
1.00157
1.00169
1.00144
1.00132
1.00126
1.00118
1.0012
1.00125
1.0013
1.00138
1.0014
1.00134
1.0013
1.00122
1.00116
1.00111
1.00108
1.00113
1.00123
1.00153
1.00165
1.00135
1.00127
1.00118
1.00112
1.00114
1.00119
1.00125
1.00133
1.00137
1.00131
1.00126
1.00117
1.00111
1.00105
1.00102
1.00107
1.00115
1.00145
1.00158
1.00146
1.00118
1.00111
1.00105
1.00108
1.00114
1.0012
1.00129
1.00132
1.00126
1.00121
1.00112
1.00105
1.00099
1.00095
1.001
1.00107
1.00134
1.00118
1.00132
1.00109
1.00103
1.00098
1.00102
1.00108
1.00115
1.00124
1.00128
1.00122
1.00117
1.00108
1.001
1.00093
1.00089
1.00093
1.00098
1.0009
1.00102
1.00114
1.001
1.00096
1.00091
1.00096
1.00103
1.0011
1.00119
1.00122
1.00116
1.00112
1.00103
1.00095
1.00088
1.00083
1.00086
1.00079
1.00082
1.00086
1.00097
1.00092
1.00089
1.00085
1.0009
1.00098
1.00106
1.00114
1.00117
1.00111
1.00108
1.00099
1.00091
1.00082
1.00076
1.00071
1.00066
1.00066
1.0007
1.00074
1.00071
1.00061
1.00059
1.00068
1.00075
1.00085
1.00075
1.0008
1.00074
1.00079
1.00085
1.00093
1.00102
1.00112
1.00107
1.00096
1.00086
1.00077
1.00072
1.00066
1.00062
1.00057
1.00054
1.00061
1.0007
1.00077
1.00069
1.00069
1.00074
1.0008
1.00089
1.00096
1.00107
1.00101
1.0009
1.00082
1.00079
1.00068
1.00064
1.00057
1.00052
1.00049
1.00049
1.00046
1.00055
1.00063
1.00058
1.00058
1.00063
1.00065
1.00069
1.00075
1.00085
1.0009
1.00102
1.00096
1.00084
1.00079
1.00073
1.00069
1.0006
1.00054
1.00049
1.00045
1.00045
1.00041
1.00049
1.00054
1.00069
1.00066
1.00054
1.00053
1.00056
1.0006
1.00065
1.00071
1.0008
1.00088
1.00084
1.0009
1.00085
1.0008
1.00076
1.00067
1.00075
1.00086
1.00092
1.00089
1.00081
1.00086
1.00084
1.00066
1.00059
1.00051
1.00045
1.00039
1.00033
1.0004
1.00046
1.00045
1.00036
1.00031
1.00026
1.00021
1.00016
1.00013
1.00011
1.00009
1.00007
1.00005
0.999998
0.999985
0.999978
0.99995
0.999912
0.999891
0.999987
0.999987
0.999983
0.999987
1.00004
1.00007
1.00009
1.0001
1.00012
1.00012
1.00013
1.00014
1.00015
1.00015
1.00016
1.00016
1.00016
1.00017
1.00017
1.00016
1.00016
1.00015
1.00013
1.00011
1.00008
1.00004
1.00001
0.999996
0.999982
0.999981
0.999904
1.00007
1.00013
1.00015
1.00011
1.00008
1.00012
1.00006
1.00002
1.00002
1.00009
1.00011
1.00007
1.00006
1.00009
1.00011
1.00009
1.00024
1.00003
1.00009
1.00009
1.00015
1.00017
1.00007
1.00007
1.0001
1.00012
1.00017
1.00023
1.00015
1.00013
1.00022
1.00019
1.00013
1.00014
1.00013
1.00011
1.00008
1.00002
0.999924
0.999943
0.999986
1.00001
1.00002
1.00003
1.00006
1.00009
1.00012
1.00015
1.00017
1.00019
1.0002
1.00021
1.00021
1.00021
1.00021
1.00021
1.0002
1.00019
1.00018
1.00016
1.00014
1.00012
1.0001
1.00008
1.00006
1.00003
1.00001
0.999993
0.999983
1.00003
1.00003
1.00002
1.00001
1.00005
1.00006
1.00006
1.00005
1.00008
1.00011
1.00014
1.00017
1.00023
1.0003
1.00034
1.00028
1.00037
1.00045
1.00042
1.00042
1.00048
1.00047
1.00052
1.00058
1.00061
1.00071
1.00067
1.00064
1.00055
1.00064
1.00074
1.00068
1.00065
1.00072
1.00087
1.00081
1.00078
1.0007
1.00058
1.00049
1.00043
1.00042
1.00035
1.0003
1.00025
1.00021
1.00018
1.00015
1.00013
1.0001
1.00009
1.00004
1.00001
1.00005
1.00007
1.00002
1.00002
0.999999
0.999968
0.999979
0.999977
0.999962
0.999929
0.999856
0.9998
1.00002
1.00005
1.00008
1.0001
1.00012
1.00013
1.00014
1.00015
1.00016
1.00016
1.00016
1.00016
1.00015
1.00015
1.00014
1.00013
1.00013
1.00014
1.00015
1.00016
1.00017
1.00017
1.00017
1.00015
1.00011
1.00005
1.00015
1.0001
0.999828
1.00004
1.00004
1.00008
1.00013
1.00016
1.00018
1.00019
1.00019
1.00018
1.00017
1.00016
1.00014
1.00013
1.00013
1.00012
1.00011
1.0001
1.00009
1.00008
1.00006
1.00004
1.00002
1
0.999979
0.999942
0.999847
0.999792
0.999944
0.99993
0.99999
1.00001
1.00003
1.00007
1.00009
1.00011
1.00012
1.00013
1.00014
1.00015
1.00016
1.00016
1.00016
1.00016
1.00016
1.00017
1.00018
1.00019
1.00021
1.00023
1.00023
1.00023
1.00022
1.00019
1.00009
1.00004
1.00024
0.999869
0.999266
0.999757
0.999987
1.00009
1.00011
1.00015
1.00007
1.00006
1.00008
0.999931
0.99979
0.999788
0.99999
0.999994
1.00001
1.00006
1.00011
1.00008
1.00007
1.00007
1.00009
1.0001
1.00017
1.00002
1.00007
1.0001
1.00012
1.00012
1.00002
1.00001
0.999965
1
0.999997
1.00002
0.999972
0.999932
0.99998
1.00002
1.00004
1.00002
1.00001
1.00001
0.99998
1.00001
0.999992
0.999905
0.99995
0.99995
0.999987
1.00001
1.00001
1.00003
1.00004
1.00009
1.00014
1.00004
1.00001
1.00005
1.00005
1.0002
1.00005
1.00027
1.00013
1.00006
1.00011
1.00015
1.00018
1.00016
1.00018
1.00025
1.00026
1.00028
1.00029
1.00021
1.00022
1.00023
1.00025
1.00019
1.00018
1.0002
1.00008
0.999988
0.999864
0.999862
0.999967
1.00003
1.0001
1.00013
1.00014
1.00014
1.00013
1.00013
1.00013
1.00013
1.00013
1.00013
1.00013
1.00013
1.00012
1.00011
1.00009
1.00007
1.00005
1.00002
1
0.999976
0.999943
0.999893
0.999864
0.999865
0.999872
0.999916
0.999887
0.999902
0.999948
0.999973
0.99997
0.999964
0.999981
0.999978
0.999948
0.99992
1.00007
1.00008
1.00013
1.00015
1.00017
1.00018
1.00018
1.00019
1.0002
1.00021
1.00022
1.00023
1.00023
1.00024
1.00024
1.00025
1.00025
1.00024
1.00024
1.00023
1.00021
1.00018
1.00015
1.00012
1.00009
1.00006
1.00004
1.00001
0.999966
1.00007
1.00014
1.00017
1.00016
1.00012
1.0001
1.0001
1.00006
1.00007
0.999992
0.999957
0.999917
0.99999
0.999965
1.00003
0.999973
0.999944
1
0.999985
0.999965
0.999907
0.999858
0.999791
0.99992
0.999992
0.999982
1.00001
1.00002
1.00002
1.00009
1.00005
1.00007
1.00001
1.00002
1.00004
1.00002
1.00002
1.00002
0.999956
0.999989
0.999992
1
0.999936
0.999924
0.999959
0.999998
1.00002
1.00003
1.00004
1.00005
1.00007
1.00009
1.00011
1.00014
1.00016
1.00018
1.0002
1.00021
1.00022
1.00023
1.00023
1.00023
1.00022
1.00021
1.0002
1.00019
1.00018
1.00016
1.00015
1.00013
1.00011
1.00009
1.00008
1.00005
1.00006
1.00006
1.00005
1.00005
1.00005
1.00002
1.00004
1.00005
1.00007
1.00008
1.0001
1.00013
1.00015
1.00019
1.00022
1.00026
1.00033
1.00036
1.00055
1.00059
1.00062
1.0006
1.00056
1.00052
1.00046
1.00045
1.00039
1.00035
1.0003
1.00027
1.00029
1.00026
1.0002
1.00018
1.00015
1.00012
1.00009
1.00013
1.00008
1.00006
1.00001
1
1.00003
1
1
1.00001
1.00004
1.00006
1.00009
1.0001
1.00012
1.00015
1.00018
1.0002
1.00022
1.00023
1.00025
1.00026
1.00028
1.00029
1.0003
1.0003
1.00031
1.00031
1.00031
1.0003
1.00029
1.00028
1.00026
1.00023
1.0002
1.00017
1.00014
1.00012
1.00009
1.00006
1.00003
1.00001
1.00005
1.00013
1.00016
1.00016
1.00016
1.00018
1.00016
1.0002
1.00018
1.00012
1.00012
1.00009
1.00008
1.00002
1.00001
0.999939
0.999912
0.999833
0.999723
0.999941
1.00004
1.00003
0.999937
0.999973
0.999977
0.999961
0.999874
0.999748
0.999561
0.999502
0.999779
0.999919
0.999958
0.999988
1
1.00001
1
0.999998
0.999997
1.00001
1.00003
1.00006
1.0002
1.0004
1.00043
1.00042
1.00045
1.00005
1.00008
1
1.00001
1.00026
1.00017
1.00034
1.00043
1.00021
1.00004
1.00001
0.999889
0.999878
0.999905
0.999944
0.999983
1.00001
1.00004
1.00007
1.00009
1.00009
1.0001
1.00011
1.00012
1.00014
1.00016
1.00018
1.0002
1.00022
1.00023
1.00024
1.00025
1.00025
1.00025
1.00025
1.00024
1.00022
1.00021
1.00019
1.00018
1.00016
1.00014
1.00012
1.0001
1.00008
1.00012
1.00009
1.00006
1.00004
1.00004
1.00002
1.00004
1.00006
1.00008
1.00011
1.00012
1.00018
1.00021
1.00025
1.00029
1.00024
1.00032
1.00038
1.00039
1.00044
1.0005
1.00049
1.00054
1.00062
1.00078
1.00075
1.00056
1.00048
1.00055
1.00051
1.00043
1.00038
1.00032
1.00027
1.00023
1.00019
1.00017
1.00014
1.00012
1.00009
1.00006
1.00009
1.00018
1.00024
1.00019
1.00015
1.00018
1.00016
1.00013
1.00011
1.00007
1.00006
1.00013
1.00013
1.00014
1.00014
1.00016
1.00017
1.00019
1.00021
1.00023
1.00024
1.00026
1.00027
1.00028
1.0003
1.00031
1.00032
1.00033
1.00033
1.00033
1.00033
1.00032
1.00031
1.0003
1.00028
1.00026
1.00024
1.00021
1.00019
1.00018
1.00017
1.00015
1.00013
1.00009
1.00006
1.00005
1.00008
1.0001
1.00012
1.00014
1.00015
1.00013
1.0001
1.00014
1.00015
1.00017
1.00012
1.00013
1.00011
1.00011
1.00011
1.00008
1.00003
1.00002
0.999933
0.999896
0.999858
0.999847
0.999508
0.999886
0.999818
1.00002
0.999902
0.999926
0.99994
0.999943
0.999864
0.999702
0.99935
0.999027
0.999368
0.999703
0.99987
0.999952
0.999975
0.999995
1
0.999998
0.999986
0.99997
0.999978
1
1.00002
1.0001
1.00022
1.0003
1.00045
1.00063
1.00054
1.00061
1.00003
0.999984
1.00009
1.00008
1.00005
1.00005
1.00007
1.0001
1.0001
1.00007
1.00005
1.00002
1.00001
0.999967
0.999953
0.999948
0.999956
0.99995
0.999931
0.999932
0.999925
0.999921
0.999873
0.999825
0.999667
0.99934
0.998872
0.998899
0.637241
0.759548
0.845281
0.905982
0.932518
0.953151
0.97343
0.985595
0.992344
0.994846
0.997072
0.998546
0.999282
0.999651
0.99975
0.999829
0.999693
0.999865
0.999933
0.99996
0.999992
0.999976
0.99992
0.999896
0.999897
0.999966
1.00002
1.00004
1.00008
1.00003
1.00007
1.00004
1.00005
1.00008
1.00008
1.00007
1.00007
1.00008
1.00003
1.00002
1.00005
1.00005
1.00002
1.00001
0.99987
1
1.00006
1.00003
0.999914
0.999919
0.9997
0.999992
0.999928
0.999923
0.999649
0.999846
0.999695
0.999946
0.999867
0.99963
0.999555
0.998939
0.997767
0.995527
0.991284
0.983653
0.970114
0.947007
0.907276
0.906058
0.843341
0.757582
0.644938
0.632294
0.75082
0.842536
0.840026
0.878872
0.909448
0.946651
0.970215
0.98385
0.99144
0.995481
0.997002
0.99834
0.999236
0.999685
0.999727
0.999576
0.999228
0.999071
0.999613
0.999864
0.999899
0.999548
0.999531
0.999788
0.999952
0.999751
0.999695
0.99963
0.999788
0.999982
0.999961
0.999821
0.999775
0.999878
0.999498
0.999585
0.999898
0.999974
0.999665
0.999478
0.999481
0.999573
0.999942
0.999931
0.999724
0.999723
0.999907
0.999746
0.999697
0.99896
0.999115
0.999643
0.999483
0.99882
0.997602
0.995237
0.990848
0.983236
0.969966
0.94766
0.908045
0.841993
0.840053
0.751239
0.75099
0.635697
0.406085
0.498394
0.624641
0.747392
0.750917
0.840007
0.903278
0.930552
0.950372
0.971578
0.984364
0.991522
0.994347
0.996626
0.998224
0.999039
0.999257
0.999601
0.999823
0.999889
0.999966
0.999986
0.999985
1.00001
1.00001
1.00001
0.999982
1
1.00002
1.00001
0.999981
0.999933
1.00003
1.00003
1.00005
1.00005
0.999989
1.00003
1.00004
0.999962
0.999978
0.999963
0.999809
0.99975
0.999375
0.998657
0.998682
0.997401
0.995037
0.990406
0.982159
0.967805
0.943708
0.90313
0.903478
0.839538
0.755904
0.696264
0.765962
0.845346
0.843214
0.909078
0.948328
0.971054
0.983289
0.990751
0.994949
0.99736
0.998212
0.999101
0.999578
0.999674
0.999886
0.999889
0.99969
0.999259
0.999589
0.999661
0.999511
0.99977
0.999879
0.999876
0.99977
0.999691
0.999694
0.999321
0.999048
0.999264
0.998618
0.998521
0.999048
0.999282
0.998493
0.998029
0.996374
0.996603
0.99389
0.990209
0.9936
0.99053
0.994799
0.997178
0.997242
0.994893
0.990659
0.983323
0.982597
0.985205
0.985936
0.975456
0.963568
0.97455
0.96892
0.945134
0.947817
0.947485
0.908423
0.843709
0.747445
0.745967
0.621198
0.633935
0.624847
0.630001
0.623963
0.623052
0.749058
0.808097
0.858114
0.909147
0.908748
0.850595
0.846947
0.851508
0.747659
0.632823
0.860849
0.917806
0.950981
0.971115
0.9733
0.984542
0.991222
0.995144
0.99739
0.996559
0.998172
0.998676
0.997467
0.995301
0.993775
0.989126
0.981759
0.970414
0.95223
0.953775
0.918065
0.853136
0.85663
0.919583
0.913224
0.951465
0.973054
0.984897
0.991523
0.99159
0.995364
0.997505
0.998701
0.999351
0.999015
0.999505
0.999643
0.999563
0.999248
0.99859
0.998148
0.996526
0.993716
0.989053
0.981667
0.984968
0.973096
0.951501
0.91332
0.850049
0.849826
0.857026
0.919894
0.952299
0.970347
0.973334
0.984542
0.991188
0.9951
0.997351
0.997195
0.998487
0.999237
0.999023
0.998453
0.997976
0.997129
0.994715
0.994845
0.990596
0.983268
0.971101
0.951034
0.953757
0.917886
0.852956
0.694154
0.771665
0.861032
0.917913
0.909507
0.945253
0.968892
0.982506
0.990454
0.993525
0.99015
0.985814
0.985211
0.974587
0.963611
0.948007
0.908987
0.850817
0.858756
0.80854
0.756541
0.749283
0.747802
0.84399
0.908579
0.947534
0.94836
0.970994
0.983203
0.990662
0.994865
0.997277
0.998585
0.999309
0.999673
0.999866
0.999823
0.9996
0.99923
0.999005
0.998614
0.997313
0.994928
0.990288
0.982056
0.967753
0.943714
0.903252
0.909237
0.843446
0.746336
0.625165
0.696641
0.766472
0.845551
0.839734
0.755781
0.751135
0.840336
0.903493
0.930704
0.950487
0.971545
0.984273
0.991421
0.994205
0.991311
0.984528
0.972462
0.952666
0.947662
0.969862
0.983069
0.990662
0.995062
0.997458
0.998698
0.99936
0.999704
0.999583
0.99914
0.998245
0.996911
0.995234
0.995405
0.991334
0.983757
0.970179
0.946724
0.909686
0.908131
0.842154
0.747684
0.625219
0.630046
0.46975
0.638222
0.702958
0.766996
0.849072
0.907327
0.946934
0.969776
0.983439
0.991223
0.995488
0.997669
0.998834
0.999331
0.999719
0.999877
0.999748
0.998939
0.999159
0.999536
0.999815
0.999922
0.999992
0.999997
0.999987
0.999782
0.999883
0.999974
1.00003
1.00006
1.00009
1.00009
1.0001
1.00013
1.00013
1.00014
1.00013
1.00014
1.00015
1.00016
1.00014
1.00015
1.00014
1.00014
1.00013
1.00015
1.00015
1.00014
1.00014
1.00014
1.00013
1.00014
1.00013
1.00011
1.00011
1.00007
1.00003
0.999906
0.999783
0.999782
0.999891
1.00001
1.00001
0.999947
0.99987
0.999432
0.999563
0.999759
0.999721
0.999675
0.999296
0.998549
0.997101
0.99563
0.99136
0.983611
0.970133
0.947058
0.909106
0.849124
0.761111
0.636359
0.631435
0.483449
0.560225
0.651989
0.771835
0.853044
0.90982
0.947352
0.970484
0.98398
0.991575
0.995709
0.997886
0.998999
0.999588
0.999601
0.999484
0.999528
0.999857
0.999944
0.999984
0.999966
1.00001
1
1.00004
1.00003
1.00003
1.00001
0.999998
1.00001
1.00002
1.00004
1.00006
1.00006
1.00006
1.00007
1.00012
1.00015
1.0002
1.00021
1.0002
1.00021
1.00022
1.00022
1.00022
1.00021
1.0002
1.00021
1.00018
1.00018
1.00016
1.00013
1.00009
1.00008
1.00006
1.00001
0.999971
0.999859
0.999681
0.999642
0.999332
0.999198
0.998697
0.999231
0.998155
0.996184
0.992152
0.985711
0.972186
0.953085
0.911508
0.85824
0.749062
0.644899
0.33115
0.394977
0.491233
0.649391
0.769006
0.853388
0.910562
0.947577
0.97066
0.984158
0.991732
0.995803
0.99792
0.998981
0.999498
0.99977
0.999899
0.999918
0.999729
0.999662
0.999662
0.999896
0.999985
1.00002
1.00006
1.00006
1.00002
0.999759
0.999702
0.999702
0.999903
1
1.00002
1.00002
1.00003
1.00003
1.00003
1.00006
1.00012
1.00017
1.00023
1.00023
1.00024
1.00024
1.00025
1.00024
1.00027
1.00025
1.00025
1.00025
1.00019
1.00013
1.00006
1
0.999872
0.999603
0.999062
0.997925
0.995223
0.986707
0.986937
0.961556
0.890184
0.711644
0.0847692
0.141703
0.207085
0.308473
0.472965
0.56256
0.670246
0.775601
0.854103
0.909401
0.946769
0.970212
0.983995
0.991703
0.995837
0.997977
0.999047
0.999558
0.999766
0.999908
0.999925
0.999869
0.999326
0.999503
0.999714
0.999879
0.999919
0.999979
1.00001
1.00006
1.00008
1.00014
1.00015
1.00018
1.00015
1.00011
1.00011
1.00011
1.00013
1.00015
1.00017
1.0002
1.0002
1.00019
1.00021
1.00021
1.00021
1.00021
1.00023
1.00025
1.00028
1.00027
1.00026
1.00025
1.00024
1.00024
1.00022
1.0002
1.0002
1.00023
1.00024
1.00025
1.00026
1.00028
1.00028
1.00028
1.00029
1.00026
1.00024
1.00023
1.00019
1.00018
1.00018
1.00015
1.00016
1.00017
1.00021
1.00022
1.00016
1.00013
1.00012
1.00015
1.00016
1.00018
1.00014
1.00013
1.00008
1.0001
1.00016
1.00016
1.00015
1.00011
1.00013
1.00009
1.00009
1.00009
1.0001
1.00004
1.00002
1.00007
1.00012
1.00006
1.00002
0.999912
1.00003
1.0001
1.00014
1.00005
1
1.00006
0.999973
0.999845
0.999966
1.00002
1.00006
1.00003
1.00006
1.00006
0.999911
0.999802
0.99989
0.999991
1.00003
1.00007
1.00011
1.00008
1.00006
1.00009
1.00009
1.00011
1.00015
1.0002
1.00025
1.00025
1.00027
1.00027
1.00027
1.00026
1.00028
1.00027
1.00027
1.00027
1.0002
1.00015
1.00009
1.00002
0.999982
0.999989
0.999928
0.999722
0.999269
0.998263
0.995741
0.998324
0.995444
0.986469
0.958845
0.888084
0.709544
0.256126
0.345126
0.499821
0.647695
0.765876
0.851259
0.909675
0.94765
0.971024
0.984561
0.992032
0.995994
0.998038
0.999067
0.999578
0.999841
0.999868
0.999868
0.999823
0.99993
0.999939
0.999892
0.999954
1.00001
1.00006
1.00011
1.00013
1.00005
1.00002
0.999986
0.999923
0.99979
0.999524
0.99904
0.998147
0.996528
0.993302
0.994971
0.990056
0.982885
0.96774
0.94877
0.906534
0.857385
0.75833
0.645758
0.488326
0.319585
0.392395
0.501905
0.655278
0.77409
0.855333
0.910743
0.947307
0.970336
0.983921
0.991609
0.995779
0.997967
0.999077
0.999611
0.999811
0.999841
0.999282
0.999086
0.999206
0.999703
0.999896
0.999902
0.999847
0.999979
0.999972
0.999885
0.999746
0.999583
0.999423
0.999209
0.998239
0.998753
0.997328
0.994835
0.989742
0.982484
0.967304
0.94831
0.90631
0.8578
0.759358
0.648556
0.492455
0.328026
0.305394
0.482872
0.495414
0.660135
0.775613
0.855753
0.9112
0.947912
0.970865
0.984315
0.991874
0.995947
0.998064
0.999123
0.999638
0.999725
0.999248
0.998257
0.996195
0.992283
0.984863
0.971955
0.949675
0.913943
0.855901
0.771605
0.654045
0.499421
0.493617
0.322987
0.147756
0.222818
0.331115
0.47865
0.64158
0.713454
0.784091
0.855541
0.909965
0.947322
0.97059
0.984207
0.991824
0.995883
0.99795
0.998971
0.999315
0.999656
0.999725
0.999818
0.999949
0.999994
0.999991
0.999964
0.999668
0.999464
0.999464
0.999745
0.999937
1.00002
1.00009
1.00013
1.00017
1.00017
1.00018
1.00014
1.00011
1.00011
1.00012
1.00013
1.00016
1.00019
1.00021
1.00023
1.00024
1.00023
1.00025
1.00025
1.00025
1.00025
1.00026
1.00029
1.00028
1.00028
1.00027
1.00026
1.00026
1.00024
1.00025
1.00026
1.00027
1.00029
1.0003
1.00031
1.00028
1.00026
1.00024
1.00024
1.00022
1.00017
1.0001
1.00004
1.00003
1
0.999969
0.999892
0.999743
0.999414
0.998567
0.996102
0.987941
0.962346
0.885204
0.709641
0.386961
0.498403
0.65588
0.77248
0.852515
0.909819
0.935581
0.956371
0.974988
0.986454
0.992869
0.995021
0.997282
0.998681
0.999317
0.999431
0.99932
0.999314
0.999576
0.999779
0.999811
0.999936
0.999982
0.999987
0.999868
0.999934
0.999939
1.00002
1.00003
1.00006
1.0001
1.00012
1.00014
1.00015
1.00014
1.00015
1.00015
1.00017
1.00018
1.00018
1.00021
1.00023
1.00024
1.00026
1.00027
1.00028
1.00027
1.00029
1.00029
1.00028
1.00029
1.00031
1.00031
1.0003
1.00029
1.00029
1.00028
1.00029
1.0003
1.00031
1.00032
1.00032
1.0003
1.00029
1.00029
1.00025
1.00019
1.00012
1.00006
1.00002
0.999988
0.999956
0.999884
0.999758
0.999551
0.999428
0.999673
0.999838
0.999823
0.999637
0.999468
0.999025
0.998483
0.997158
0.995339
0.991139
0.985162
0.971788
0.952338
0.911235
0.856
0.753199
0.646659
0.652674
0.767025
0.850896
0.887432
0.917221
0.950456
0.972121
0.984912
0.992085
0.995864
0.99718
0.998524
0.999309
0.999694
0.999883
0.999967
0.999993
0.999942
0.999649
0.999015
0.999124
0.999629
0.999895
0.999997
1.00003
1.00009
1.00014
1.00014
1.00017
1.00016
1.00018
1.00017
1.00019
1.00019
1.00021
1.00023
1.00023
1.00025
1.00025
1.00028
1.00029
1.00029
1.00032
1.00033
1.00033
1.00031
1.00035
1.00035
1.00034
1.00034
1.00034
1.00036
1.00037
1.00036
1.00033
1.00031
1.00031
1.00029
1.00031
1.00031
1.0003
1.00033
1.00034
1.00035
1.00036
1.00034
1.00033
1.00034
1.00031
1.00034
1.00035
1.0003
1.00031
1.00021
1.00015
1.00008
1.00004
1.00002
1
0.999995
0.999977
0.999949
0.999895
0.999822
0.999676
0.999471
0.999256
0.999311
0.999537
0.999632
0.999345
0.998939
0.99782
0.996059
0.991985
0.985651
0.97189
0.95064
0.907467
0.85014
0.747123
0.648497
0.124132
0.216735
0.318813
0.46926
0.64656
0.661943
0.77935
0.856464
0.911221
0.94816
0.971111
0.9845
0.991988
0.995997
0.998071
0.9991
0.99962
0.999644
0.999167
0.998166
0.99617
0.992181
0.98506
0.971675
0.950274
0.912776
0.859545
0.777382
0.662795
0.645968
0.484527
0.326101
0.207793
0.122008
0.647872
0.713696
0.777958
0.852426
0.90853
0.933599
0.955654
0.974364
0.986198
0.992803
0.994927
0.997336
0.998751
0.999437
0.999769
0.9999
0.999863
0.999894
0.999828
0.999869
0.999949
0.999914
0.999781
0.999883
0.999953
1
1.00003
1.00009
1.00011
1.00015
1.00015
1.00018
1.00017
1.00019
1.00019
1.00021
1.00021
1.00023
1.00025
1.00024
1.00027
1.00027
1.00029
1.00031
1.00031
1.00033
1.00034
1.00033
1.00036
1.00036
1.00038
1.0004
1.00042
1.00043
1.00045
1.00049
1.00044
1.00038
1.00033
1.0003
1.00036
1.0004
1.00044
1.00045
1.00044
1.00044
1.00039
1.00041
1.00042
1.00042
1.0004
1.00037
1.00033
1.00031
1.00035
1.00036
1.00038
1.0004
1.00039
1.00037
1.00037
1.00038
1.00041
1.00038
1.00039
1.00038
1.00036
1.00037
1.00023
1.00016
1.00009
1.00006
1.00003
1.00002
1
0.999982
0.999947
0.999874
0.999711
0.999372
0.999256
0.999256
0.999613
0.999789
0.999753
0.999431
0.998822
0.997604
0.995444
0.991433
0.984477
0.971553
0.949541
0.909999
0.849955
0.756013
0.640296
0.826005
0.862618
0.913388
0.949351
0.964745
0.977589
0.987834
0.991374
0.995315
0.997746
0.998971
0.999558
0.999773
0.999844
0.999722
0.999482
0.999688
0.99984
0.999883
0.99996
0.999989
1.00001
1.00002
1.00004
1.00007
1.00013
1.00013
1.00016
1.00016
1.00016
1.00017
1.00017
1.00018
1.00019
1.00019
1.00021
1.00021
1.00022
1.00024
1.00025
1.00027
1.00026
1.0003
1.00031
1.00033
1.00033
1.00033
1.00033
1.00036
1.0004
1.00043
1.0006
1.0008
1.00065
1.00056
1.00063
1.00072
1.00068
1.00045
1.00031
1.00008
0.999982
0.999982
0.999996
1.00002
1.00005
1.00009
1.00013
1.00015
1.00016
1.00016
1.00016
1.00016
1.00017
1.00018
1.00019
1.00021
1.00023
1.00024
1.00026
1.00027
1.00028
1.00028
1.00028
1.00028
1.00027
1.00026
1.00024
1.00023
1.00021
1.0002
1.00018
1.00016
1.00014
1.00009
1.00008
1.00007
1.00006
1.00006
1.00003
1.00006
1.00006
1.00006
1.00007
1.00008
1.00008
1.0001
1.00015
1.00013
1.00017
1.0002
1.00023
1.00028
1.00032
1.00033
1.00038
1.00043
1.00045
1.0005
1.00056
1.00068
1.00067
1.00062
1.00057
1.00049
1.00038
1.00033
1.00029
1.00024
1.00021
1.00018
1.00016
1.00013
1.00011
1.00014
1.00023
1.00029
1.00024
1.0002
1.00022
1.0002
1.00018
1.00022
1.0002
1.00018
1.00015
1.00016
1.00014
1.00013
1.00012
1.00013
1.00015
1.00016
1.00017
1.00019
1.00022
1.00024
1.00026
1.00028
1.0003
1.00031
1.00033
1.00034
1.00035
1.00036
1.00036
1.00036
1.00036
1.00036
1.00035
1.00034
1.00034
1.00034
1.00035
1.00036
1.00038
1.00041
1.00043
1.00046
1.00047
1.00046
1.00045
1.00042
1.00039
1.0004
1.00046
1.00073
1.00074
1.0007
1.00048
1.00021
1.00002
1.00003
1.00006
1.00011
1.00015
1.0002
1.00022
1.00023
1.00023
1.00022
1.00021
1.0002
1.0002
1.00021
1.00021
1.00023
1.00024
1.00025
1.00027
1.00027
1.00028
1.00028
1.00028
1.00027
1.00026
1.00024
1.00023
1.00021
1.00019
1.00017
1.00015
1.00012
1.00012
1.00009
1.0001
1.00008
1.00007
1.00007
1.00008
1.00007
1.00007
1.00006
1.00008
1.00011
1.00017
1.00017
1.00014
1.00017
1.00019
1.00023
1.00024
1.00022
1.00019
1.0002
1.00023
1.00026
1.00028
1.00032
1.00035
1.00039
1.00041
1.00044
1.00051
1.0005
1.00054
1.00063
1.00058
1.00055
1.00055
1.00051
1.00039
1.00035
1.00028
1.00023
1.0002
1.00016
1.00016
1.0003
1.00035
1.00028
1.00025
1.00022
1.00025
1.00028
1.00026
1.00028
1.0003
1.00033
1.00036
1.00041
1.00036
1.00032
1.00028
1.00032
1.00035
1.00039
1.00042
1.00044
1.00041
1.00036
1.00032
1.00029
1.00036
1.0004
1.00043
1.00046
1.00052
1.00039
1.00042
1.00043
1.00044
1.00049
1.00054
1.00068
1.00072
1.00056
1.0006
1.0006
1.00073
1.00071
1.00074
1.00076
1.00079
1.00083
1.0008
1.00077
1.00079
1.00083
1.00087
1.00072
1.00082
1.00074
1.00074
1.00059
1.00061
1.00065
1.00076
1.00084
1.00089
1.00093
1.00089
1.00097
1.00095
1.00091
1.00083
1.00093
1.00088
1.00085
1.00068
1.00066
1.00063
1.00059
1.00056
1.00053
1.00048
1.00047
1.00049
1.00045
1.00043
1.00061
1.00056
1.00059
1.00064
1.00068
1.00052
1.00046
1.00042
1.00039
1.00035
1.00034
1.00048
1.00052
1.00056
1.00056
1.0005
1.00035
1.00032
1.00041
1.00046
1.00054
1.00067
1.00065
1.00054
1.0006
1.00062
1.00063
1.00068
1.00064
1.0007
1.00075
1.00077
1.00069
1.00053
1.0005
1.00057
1.00071
1.0008
1.00062
1.00067
1.00082
1.00087
1.00075
1.0007
1.00078
1.00083
1.00074
1.0008
1.00091
1.00097
1.00093
1.00088
1.00072
1.00077
1.00092
1.00096
1.00101
1.00107
1.00095
1.0009
1.00102
1.00095
1.00084
1.00079
1.00087
1.00093
1.00083
1.0009
1.00095
1.00101
1.00112
1.00107
1.00113
1.001
1.00106
1.00116
1.00118
1.00113
1.00108
1.00112
1.00111
1.00106
1.00101
1.00096
1.00081
1.00088
1.00083
1.00094
1.00087
1.001
1.00105
1.00092
1.00098
1.00104
1.00115
1.00121
1.00111
1.00107
1.00118
1.00124
1.00113
1.00117
1.00126
1.00129
1.00122
1.00117
1.00123
1.00128
1.00134
1.0014
1.00144
1.00147
1.00151
1.00155
1.00158
1.00153
1.00147
1.00142
1.00137
1.00132
1.00123
1.0012
1.0013
1.00137
1.00126
1.00128
1.00134
1.00133
1.00143
1.0015
1.00138
1.00139
1.00144
1.00145
1.00156
1.00162
1.00151
1.00148
1.00153
1.00156
1.00167
1.00162
1.00159
1.00164
1.00168
1.0017
1.00171
1.00176
1.00175
1.00172
1.00168
1.00156
1.00161
1.00172
1.00177
1.00172
1.00166
1.00159
1.00152
1.00144
1.00137
1.00129
1.00122
1.00114
1.00107
1.00099
1.00094
1.0009
1.00085
1.00077
1.00072
1.00062
1.00066
1.00071
1.00076
1.0008
1.00087
1.00098
1.00093
1.00085
1.0008
1.00101
1.00112
1.00122
1.00132
1.00142
1.00151
1.00158
1.00165
1.00169
1.00173
1.00175
1.00174
1.0018
1.00164
1.0016
1.00155
1.0015
1.00145
1.00139
1.00133
1.00126
1.00119
1.00112
1.00104
1.00096
1.00165
1.00159
1.00164
1.00169
1.00181
1.00177
1.00166
1.00162
1.00157
1.00152
1.00146
1.0014
1.00134
1.00128
1.00123
1.00117
1.00111
1.00097
1.00103
1.00108
1.00119
1.00125
1.00113
1.0011
1.00116
1.00118
1.0013
1.00132
1.00137
1.00142
1.00146
1.00149
1.0015
1.00145
1.0014
1.00135
1.00123
1.00122
1.00128
1.00127
1.00132
1.00133
1.00139
1.00137
1.00142
1.00155
1.00153
1.00157
1.00159
1.00161
1.00163
1.00167
1.00166
1.00163
1.00159
1.00145
1.0015
1.00144
1.00144
1.00139
1.00133
1.00127
1.00121
1.00114
1.00108
1.00101
1.00094
1.00105
1.00101
1.0011
1.00111
1.00119
1.00119
1.00129
1.00127
1.00135
1.00138
1.00146
1.00142
1.00149
1.00153
1.00158
1.00156
1.00161
1.00161
1.00163
1.00166
1.00149
1.00154
1.00169
1.00164
1.00163
1.00173
1.00183
1.00167
1.00169
1.00172
1.00167
1.00183
1.00185
1.00172
1.00174
1.00169
1.00158
1.00154
1.00149
1.00153
1.00158
1.0016
1.00171
1.00171
1.00157
1.00161
1.00161
1.00061
1.0006
1.00057
1.00055
1.00052
1.00036
1.00032
1.00049
1.00043
1.00041
1.00039
1.00034
1.0003
1.00032
1.00036
1.0004
1.00043
1.00026
1.00025
1.00046
1.00051
1.0003
1.00035
1.00036
1.00042
1.00031
1.00051
1.00044
1.00024
1.00027
1.00037
1.00043
1.00051
1.00045
1.00053
1.00038
1.00034
1.00048
1.00038
1.00043
1.00046
1.00043
1.0003
1.00027
1.00039
1.0004
1.00026
1.0003
1.00029
1.00024
1.00038
1.00033
1.00034
1.00029
1.00028
1.00022
1.00016
1.0001
1.00014
1.00006
1.00015
1.00015
1.00014
1.00013
1.00013
1.00015
1.00016
1.00019
1.00021
1.00023
1.00026
1.00027
1.00029
1.00031
1.00032
1.00034
1.00035
1.00036
1.00037
1.00037
1.00037
1.00036
1.00035
1.00033
1.00032
1.0003
1.00028
1.00027
1.00026
1.00026
1.00025
1.00025
1.00022
1.00018
1.00013
1.00009
1.00007
1.00007
1.00009
1.0001
1.00013
1.00014
1.00013
1.00011
1.0001
1.0001
1.00014
1.00014
1.00011
1.00012
1.00011
1.00007
1.00008
1.00008
1.00009
1.00003
1.00004
0.999986
0.999926
0.99993
0.999898
0.999769
0.999321
0.999321
0.999771
0.999996
0.999842
0.999796
0.99993
0.999882
0.99989
0.999922
0.999881
0.999934
0.999887
0.999915
0.999943
0.999953
0.999949
0.999931
0.99997
0.999948
0.999915
0.999844
0.999923
0.999955
0.999955
0.999932
0.999805
0.999522
0.999711
0.999388
0.998837
0.998837
0.999249
0.99968
0.999856
0.999877
0.999877
0.999929
0.999968
0.999992
0.999994
0.999979
0.999956
0.999934
0.999967
1
1.00008
1.00024
1.00051
1.00066
1.0007
1.00023
0.999999
1.00004
1.00004
1.00001
1.00004
1.00002
1.00005
1.00003
1.00007
1.00012
1.00012
1.0001
1.00005
1.00005
1.00003
1
0.999994
0.999994
0.999952
0.999873
0.999739
0.999431
0.999694
0.999253
0.999062
0.999364
0.197254
0.317438
0.312514
0.483834
0.647929
0.772325
0.854273
0.911587
0.911271
0.949851
0.971904
0.984959
0.992214
0.996143
0.998014
0.998943
0.99918
0.99821
0.996181
0.992079
0.984389
0.97083
0.947608
0.910795
0.856752
0.8543
0.77558
0.777086
0.769886
0.647227
0.488693
0.323852
0.201937
0.211488
0.20325
1.00069
1.00073
1.00047
1.0003
1.00025
1.00026
1.00051
1.00078
1.00054
1.00059
1.00033
1.00054
1.00052
1.00034
1.00026
1.00066
1.00062
1.00024
1.00026
1.00031
1.00035
1.00055
1.0004
1.00049
1.00058
1.00056
1.00032
1.0006
1.00036
1.00041
1.0005
1.0004
1.00034
1.00033
1.00014
1.00013
1.0001
1.00008
1.00007
1.00012
1.00012
1.00014
1.00022
1.00012
1.00024
1.00021
1.00021
1.0002
1.00017
1.00019
1.00012
1.00009
1.00007
1.00004
1.00004
1.00003
1.00002
1.00001
1.00001
0.999988
0.999982
0.999946
0.9999
0.999809
0.999787
0.39205
0.502079
0.655976
0.774588
0.855431
0.910668
0.947162
0.970148
0.983704
0.991382
0.995564
0.99778
0.998924
0.999492
0.999716
0.999465
0.998939
0.997854
0.995709
0.991622
0.98407
0.970658
0.947773
0.911172
0.85591
0.776055
0.66077
0.495532
0.48302
1.0005
1.00017