/*--------------------------------*- C++ -*----------------------------------*\
  =========                 |
  \\      /  F ield         | OpenFOAM: The Open Source CFD Toolbox
   \\    /   O peration     | Website:  https://openfoam.org
    \\  /    A nd           | Version:  7
     \\/     M anipulation  |
\*---------------------------------------------------------------------------*/
FoamFile
{
    version     2.0;
    format      ascii;
    class       surfaceScalarField;
    location    "18.9";
    object      alphaPhi0.water;
}
// * * * * * * * * * * * * * * * * * * * * * * * * * * * * * * * * * * * * * //

dimensions      [0 3 -1 0 0 0 0];

internalField   nonuniform List<scalar> 
42590
(
-0.0618663
0.000139958
-0.0509077
-0.0604275
0.048865
-0.0108711
-0.0969698
-0.00288643
0.0183837
-0.122456
0.00778271
0.0146428
-0.11774
-0.0047413
0.00976052
-0.149555
-0.00411156
0.00481747
-0.108842
2.16602e-05
0.00897415
-0.106027
-0.00214005
0.00574363
-0.0853875
0.00383116
-0.000881799
-0.0460523
0.000252893
-0.00673646
-0.0482234
-0.000305677
-0.0096402
-0.0849932
0.00352566
-0.00514851
-0.104898
-0.00249383
-0.00998858
-0.10736
5.25798e-06
-0.014726
-0.147537
-0.00407974
-0.0183625
-0.116265
-0.00472836
-0.0485368
-0.121088
0.00774911
0.061197
-0.0108716
-0.0960208
-0.00283927
-0.050472
-0.0597898
-9.58187e-05
-0.0673734
0.00612668
-0.067981
0.00610604
0.00938048
0.000117766
-0.0802855
0.00280827
0.0221533
-0.107017
-0.00272214
0.0158597
-0.12204
0.0058818
0.014463
-0.111805
-0.00453573
0.0115182
-0.143128
-0.00347835
0.00763577
-0.105755
0.000797952
0.00874726
-0.104429
-0.00270606
0.00355673
-0.0834894
0.00329361
-0.000801487
-0.0429925
0.0012967
-0.00456565
-0.0451585
0.000697392
-0.00947226
-0.0830779
0.0029918
-0.00794937
-0.10336
-0.00305907
-0.0117228
-0.104359
0.000774586
-0.0145171
-0.141295
-0.00344588
-0.0158057
-0.110458
-0.00451625
-0.0220314
-0.120698
0.00583996
-0.00941906
-0.105996
-0.00263429
-0.079578
0.00290471
-0.000114602
0.0058326
-0.0857532
0.000460121
0.00578209
-0.0864912
0.000311206
0.0135661
-0.112302
-0.00249671
0.0112107
-0.123346
0.00366462
0.0123676
-0.109678
-0.00328029
0.0117375
-0.139555
-0.00293953
0.00824238
-0.103251
0.00099424
0.00860266
-0.102148
-0.00263801
0.00313641
-0.0812958
0.00327422
-0.00073938
-0.0407231
0.00160473
-0.00413267
-0.0427689
0.001002
-0.00932949
-0.0808546
0.00297498
-0.00854915
-0.101142
-0.00299673
-0.0119232
-0.101955
0.000971432
-0.0124372
-0.137863
-0.00291451
-0.0111909
-0.108434
-0.00326841
-0.0134801
-0.122038
0.00363355
-0.111271
-0.00237103
-0.00410143
0.00941506
-0.114206
-0.00237425
-0.000114374
-0.0889618
-0.000776093
0.00404859
-0.0897203
-0.000931356
0.009505
-0.115225
-0.00252951
0.00837058
-0.124446
0.00223937
0.0103447
-0.109064
-0.00258513
0.0111889
-0.137755
-0.00263952
0.0082406
-0.101399
0.00109909
0.00848531
-0.0999444
-0.00244513
0.003079
-0.0791905
0.0033029
-0.000689609
-0.0387002
0.00174411
-0.00403693
-0.0405678
0.00114452
-0.00918009
-0.0787029
0.00299364
-0.00853534
-0.0989802
-0.00280364
-0.0113775
-0.100177
0.00106701
-0.0104194
-0.136193
-0.00262456
-0.00836976
-0.107899
-0.00258059
-0.123195
0.00220447
-0.00745701
0.00686664
-0.123934
0.00133428
-0.0032958
-0.115851
-0.00251276
-0.000111615
-0.0906668
-0.00147614
0.00324471
-0.0914384
-0.0016355
0.00754265
-0.116854
-0.0026654
0.00686784
-0.125146
0.00137811
0.00901078
-0.108946
-0.00225692
0.0106248
-0.136814
-0.00255092
0.00810217
-0.100018
0.00114453
0.00836601
-0.0979628
-0.00224224
0.00310923
-0.0772618
0.00333009
-0.000646106
-0.0367753
0.00182912
-0.00402276
-0.0384285
0.00123598
-0.00903084
-0.0766996
0.00300794
-0.00838478
-0.0970206
-0.00260186
-0.0107933
-0.098865
0.00110086
-0.00908282
-0.135347
-0.00254971
-0.107855
-0.00225818
-0.00607514
0.00826218
-0.107923
-0.00211358
-0.00649618
-0.124332
0.000824234
-0.0029229
-0.116804
-0.0026158
-0.000111137
-0.0916147
-0.00186086
0.00286623
-0.0923941
-0.0020191
0.00658491
-0.117807
-0.0027625
0.00607234
-0.125513
0.000882966
0.00821151
-0.108978
-0.00210487
0.0102603
-0.136315
-0.00254306
0.0079763
-0.0988939
0.00116249
0.00823538
-0.0961481
-0.00207039
0.0031544
-0.0755135
0.00333527
-0.000602281
-0.0349134
0.00189407
-0.00401902
-0.0363211
0.00130871
-0.00885711
-0.0748626
0.00300483
-0.00822042
-0.0952339
-0.00241842
-0.0103954
-0.0977858
0.00110162
-0.134912
-0.00256308
-0.00775101
0.0100796
-0.1346
-0.00263373
-0.00562777
-0.107977
-0.0020649
-0.00595989
-0.12445
0.000455963
-0.00273624
-0.117311
-0.00271209
-0.000109226
-0.0921172
-0.00212169
0.00268128
-0.0928995
-0.00228251
0.00604953
-0.118313
-0.00285843
0.00563798
-0.125624
0.000526796
0.0077146
-0.109002
-0.00204855
0.00997824
-0.135979
-0.00259548
0.00783776
-0.0979244
0.00117439
0.00808752
-0.0944975
-0.00189637
0.00319626
-0.073956
0.00333745
-0.00055204
-0.0331266
0.00196171
-0.00399775
-0.0342607
0.00138566
-0.00862794
-0.0732169
0.0029891
-0.00805097
-0.0935623
-0.00224222
-0.0968395
0.00108649
-0.00975074
0.00782847
-0.0959889
0.00107801
-0.00727921
-0.134365
-0.00269944
-0.00525955
-0.107962
-0.002029
-0.00547959
-0.124276
5.16096e-05
-0.00257176
-0.117407
-0.00280807
-0.000108289
-0.092214
-0.00236368
0.00252315
-0.0930179
-0.00251016
0.00558251
-0.118426
-0.0029425
0.00527359
-0.125461
0.000151246
0.00727475
-0.108991
-0.00200801
0.00970013
-0.135749
-0.00264965
0.00766937
-0.097081
0.0011917
0.00787107
-0.093003
-0.00169115
0.00321748
-0.0726428
0.00334536
-0.000500901
-0.0314674
0.00206063
-0.00395756
-0.0322936
0.00149088
-0.00833189
-0.0718148
0.00297863
-0.0920349
-0.00202623
-0.00751772
0.0079289
-0.090702
-0.00173688
-0.00928853
-0.0952828
0.00107007
-0.00665461
-0.134263
-0.00272836
-0.00471771
-0.107904
-0.00198993
-0.00480346
-0.123826
-0.00035891
-0.00233107
-0.116995
-0.00287892
-0.000107492
-0.0917967
-0.00263746
0.00227121
-0.0926067
-0.00278653
0.00489233
-0.118037
-0.00300556
0.00474093
-0.125021
-0.000282965
0.00667325
-0.108964
-0.00195499
0.00927333
-0.135687
-0.00265595
0.00739523
-0.0964048
0.00120704
0.00754039
-0.0917347
-0.00140758
0.00317722
-0.0716477
0.00337405
-0.000451229
-0.030034
0.00219793
-0.00385954
-0.030513
0.00163092
-0.070725
0.00298519
-0.00734074
0.00366484
-0.0700625
0.00302022
-0.00704577
-0.0896709
-0.00131944
-0.00855252
-0.0948335
0.0010633
-0.00561865
-0.134506
-0.00268337
-0.0037188
-0.107969
-0.00182936
-0.0034584
-0.123075
-0.00100456
-0.00179875
-0.115718
-0.00293173
-0.000112351
-0.0904042
-0.00307518
0.00172358
-0.0912244
-0.00321466
0.00352332
-0.116792
-0.00303926
0.0037373
-0.124307
-0.000922698
0.00564519
-0.109079
-0.00178707
0.00856771
-0.136011
-0.00259115
0.00695912
-0.0960103
0.00122002
0.00702424
-0.0907958
-0.000997508
0.00302306
-0.0710672
0.00342753
-0.000407776
-0.0290939
0.0024952
-0.0291687
0.00191726
-0.00326589
0.000375403
-0.0287144
0.00244125
-0.00652067
-0.0699156
0.00311475
-0.00640901
-0.0890832
-0.000692524
-0.00738877
-0.0949067
0.00105905
-0.00379823
-0.135612
-0.00247741
-0.00185472
-0.108467
-0.0014395
-0.000791437
-0.122008
-0.0021243
-0.000632688
-0.112947
-0.00292436
-0.000114463
-0.0870839
-0.00383456
0.000527083
-0.0878964
-0.00396588
0.000797965
-0.114055
-0.003004
0.0018436
-0.123299
-0.00204912
0.00382397
-0.109666
-0.0013883
0.0074236
-0.137237
-0.00236525
0.00635183
-0.0961753
0.00124331
0.0062495
-0.0903069
-0.000379403
0.00263947
-0.0709768
0.00352734
-0.0291026
0.00302936
-0.000361365
-0.00194206
-0.0307195
0.00392595
-0.00255
-0.0298527
0.00333321
-0.00537275
-0.0704071
0.0033207
-0.00580305
-0.0888462
0.000200342
-0.0059061
-0.095932
0.00113465
-0.000760163
-0.138761
-0.00198852
0.00168325
-0.110246
-0.000659166
0.0043933
-0.120664
-0.00404873
0.00155842
-0.107416
-0.00269058
-0.000105977
-0.0803578
-0.00505762
-0.00167666
-0.0811416
-0.00518038
-0.00446098
-0.108533
-0.00273299
-0.00174076
-0.122027
-0.00398725
0.000749395
-0.111552
-0.000598889
0.00592663
-0.140557
-0.00184972
0.0057638
-0.0973191
0.00131344
0.00511707
-0.0901574
0.00050527
-0.0715359
0.00374075
7.07777e-05
-0.00337377
-0.0719285
0.00370228
-0.000378339
-0.0359998
0.00573598
-0.000725204
-0.0346405
0.00514059
-0.00361722
-0.0707851
0.00327622
-0.00673139
-0.0866995
0.000974763
-0.00438213
-0.100059
0.00178491
0.00384968
-0.146
-0.000984925
0.00747035
-0.114757
0.000896703
0.01389
-0.119936
-0.00714156
0.00563302
-0.0968996
-0.00225391
-8.4092e-05
-0.0675146
-0.00712251
-0.00577305
-0.0682061
-0.00724344
-0.0140648
-0.0979586
-0.00227915
-0.00759794
-0.121376
-0.00711219
-0.00390703
-0.116233
0.000996245
0.00441034
-0.148045
-0.000821611
0.00673522
-0.101602
0.00196531
-0.0880527
0.00126366
0.0014647
-0.0220217
-0.066168
-0.00132081
-0.011679
-0.0586439
-0.000134666
-0.000402172
-0.0595899
0.0123205
0.0109177
-0.0575275
0.0115742
-0.00167641
-0.0577274
-0.000458431
-0.0217447
-0.0650872
-0.00153753
0.000830019
-0.128496
0.00586973
0.00897052
-0.153786
-0.000346029
0.0121251
-0.119294
0.00138808
0.0399731
-0.137508
-0.0102698
0.00832533
-0.0020312
-0.063217
-3.74559e-05
-0.00920277
-0.0499467
-0.0084462
-0.0504826
-0.00931215
-0.0404336
-0.0639177
-0.00204948
-0.0122975
-0.139259
-0.0102468
-0.00906765
-0.120954
0.00149797
-0.000841095
-0.156115
-0.000146573
-0.130606
0.00614759
-0.0178987
0.0139302
-0.131251
0.00462138
0.000909899
0.0452753
0.00358087
-0.0676616
0.0370046
0.00433902
-0.0492077
0.00877647
-0.0425333
-0.0641175
0.0216664
0.00783865
-0.00133979
-0.00620907
-0.0731661
0.0189201
-0.00231879
-0.00235796
0.015219
-0.08186
0.00341419
-0.0611873
0.0671167
-0.081118
-0.000321107
0.0177411
-0.00037731
0.0166843
-0.00884876
-0.0650551
0.0160072
0.0362731
-0.000963234
-0.0482239
0.00406732
-0.0444976
-0.0420417
0.0175598
-0.0664356
0.00341811
0.0137602
-0.129031
0.00434251
0.0135862
-0.152359
-0.00124441
0.00796153
-0.113006
-0.000656997
-0.00944319
-0.117223
-0.00287428
8.87895e-05
-0.176779
-0.00303587
0.170293
0.00967917
-0.178712
0.172107
-0.00297507
-0.00801601
-0.118831
-0.00272721
-0.0136864
-0.114673
-0.000605368
-0.154797
-0.00106758
-0.023821
0.0209358
-0.149004
-0.00290039
-0.141077
0.0012273
-0.0217343
0.0321969
-0.1504
-0.00113233
-0.0088827
-0.094352
-0.000357072
0.00453136
-0.0819313
0.00733323
-0.000178405
-0.0899043
0.013498
0.0789476
-0.0877715
-0.00453909
0.0131884
-0.00356916
0.0171428
0.00226112
-0.0599982
0.00594745
0.0149894
-0.0803688
0.00120835
0.0235838
-0.138632
0.0010116
0.0208039
-0.146536
-0.00303455
0.00778818
-0.0970804
-0.00290511
-0.000710476
-0.0990294
-0.00968973
0.000195981
-0.160052
-0.0176258
0.00101103
-0.161903
-0.0176158
-0.00774835
-0.100462
-0.00960403
-0.0985725
-0.00290967
-0.0385136
0.00679637
-0.0613892
-0.00546191
-0.150994
-0.00432434
-0.0363572
0.00479906
-0.117405
-0.00202393
-0.0334295
-0.151329
-0.00199692
-0.0194972
-0.105967
-0.0023148
-0.0342598
-0.0869879
0.019822
-0.00666027
0.031823
-0.0628792
0.00345687
0.0257308
-0.0438061
-1.50372e-05
0.0114299
2.63955e-06
-0.0323514
-0.0311118
-0.025033
-0.0316219
0.0337768
-0.0064608
0.00321218
-0.0616381
0.0803963
-0.085413
0.0192952
0.019503
0.00873432
0.0071238
0.0215192
-0.0925572
-0.000592562
0.0319676
-0.147737
-0.00133867
0.0382562
-0.148411
-0.00440612
0.00684566
-0.06029
-0.00537642
-0.00631672
-0.0718432
-0.0140195
0.000349098
-0.141839
-0.0248711
0.0068528
-0.143493
-0.0249103
-0.0727824
-0.0140288
-0.108152
-0.0819697
0.0559522
-0.116375
0.0305326
-0.0175079
-0.0304644
0.0522107
-0.112553
-0.0255654
-0.0509938
-0.0988189
0.00194424
-0.0546791
-0.146145
-0.00149423
-0.0174215
-0.14172
-0.00150287
-0.0339916
-0.0975796
0.0271651
-0.0272778
-0.0690539
-0.000538932
0.000201473
-0.100962
0.029677
0.0427381
0.0295635
0.027032
-0.0991299
0.0112265
-0.0676818
0.0508045
-0.000302134
0.00126497
0.0635671
-0.102215
-0.00073195
0.0339907
-0.0673325
0.0175944
-0.0959813
0.0269685
0.103944
-0.138808
0.0544432
-0.00197876
0.0332216
-0.00254011
0.0362994
-0.148581
-0.00222757
0.00533705
-0.00208926
-0.115355
0.0308857
0.106709
-0.0178303
-0.114422
0.0804335
-0.0937833
0.00539268
0.0388457
0.0550056
-0.0380045
-0.0116373
0.0852538
-0.114832
-0.0329104
-0.0102798
0.115616
-0.104038
-0.0383813
0.00767033
-0.00185386
0.0258612
-0.0473284
-0.0917272
0.0110151
0.0305714
-0.0508921
-0.096886
0.0525142
-0.110505
0.0146237
-0.0032323
-0.0526588
0.000374109
-0.0148722
-0.0495423
0.0786671
-0.0143331
-0.0501403
0.079679
-0.0148296
-0.0540462
0.0953894
-0.00346552
-0.150896
-0.000647656
0.0473585
-0.00220665
-0.000946428
-0.120717
-0.0270207
-0.0205834
-0.0203836
-0.0737936
-0.0724472
-0.00116714
-0.0457856
-0.0848657
-0.132642
-0.00107936
-0.0918576
-0.132407
-0.00231566
-0.0261582
0.0384949
0.00055513
-0.104748
0.0810462
0.040009
-0.0988144
-0.0483965
-0.0470917
-0.0838789
-0.00333471
0.0806898
0.00570275
-0.00836268
0.0975694
-0.0697693
-0.109011
-0.1271
0.117291
-0.0892294
-0.0952297
0.0259999
-0.0488107
-0.00905532
-0.0826883
0.0139186
-0.0154938
-0.0109626
-0.0775366
-0.00166969
0.00888667
-0.0123658
-0.0852587
-0.0143049
0.0310379
-0.0090089
-0.102622
-0.0317831
0.0568304
-0.00768247
-0.135853
-0.0531241
0.0931116
-0.00675376
-0.115933
-0.14727
0.130339
-0.00298567
-0.0892183
-0.160328
0.13046
0.00315841
-0.0118255
-0.130769
0.0463986
0.00698052
-0.0819048
0.075558
-0.0324538
0.026975
-0.0547777
-0.0432789
0.0521687
-0.0360178
-0.0865972
0.0121999
0.00329156
0.0163305
-0.0938005
0.0199983
-0.0346424
0.0218505
-0.0877897
-0.000823132
-0.0195838
0.0143986
-0.055125
-0.0555984
0.0677809
-0.0448529
-0.0758319
0.00292282
0.00650265
0.0112818
-0.0900432
0.00341538
0.00154063
0.00925545
-0.105271
0.00364787
0.00731984
0.00425989
-0.0956624
0.00722164
-0.02721
0.0103756
-0.0988638
0.00418871
-0.00846283
0.00747392
-0.101449
-0.000674599
-0.0012565
0.00451429
-0.102738
-0.00419372
0.0029355
0.002545
-0.103131
-0.0063481
0.00548195
0.00125762
-0.102958
-0.00772683
0.00710477
0.000448238
-0.102417
-0.00865539
0.00819929
-8.61348e-05
-0.101681
-0.00938296
0.00900588
-0.000361071
-0.100788
-0.00999899
0.00968866
-0.000585195
-0.0997559
-0.010583
0.0103314
-0.00078237
-0.0985685
-0.0111819
0.0109638
-0.000970889
-0.0972296
-0.0118157
0.0116461
-0.00117098
-0.0957021
-0.0125117
0.0123875
-0.00140514
-0.0939345
-0.0132896
0.0132178
-0.00169795
-0.0918664
-0.0141781
0.0141642
-0.00205591
-0.0894209
-0.0151844
0.0152178
-0.00248
-0.0865142
-0.0163295
0.0163923
-0.00296927
-0.0830518
-0.0176346
0.0176989
-0.00352596
-0.0789043
-0.0191409
0.0191643
-0.00417002
-0.0739344
-0.0208814
0.0208566
-0.0049441
-0.0678817
-0.023012
0.0229054
-0.0059441
-0.0605288
-0.0256667
0.0255554
-0.00723914
-0.0517558
-0.0289621
0.029013
-0.00882135
-0.0412692
-0.0321003
0.0320671
-0.0104513
-0.0315766
-0.0311702
0.0331635
-0.0116853
-0.00757211
-0.021528
0.00402687
-0.00649867
-0.00335819
-0.00297672
-0.0078057
0.00656276
-0.0354752
0.0171728
0.0293266
-0.014386
-0.0560074
0.0278895
0.0458543
-0.0532256
-0.0409522
0.0187607
0.0340235
-0.0678333
-0.037019
0.00619195
-0.0101241
-0.0248556
-0.0268801
0.00777959
0.00693321
-0.0134026
0.0105865
-0.0196729
-0.00236869
-0.00831739
-0.01483
-0.0171359
-0.0133483
0.00599419
-0.000964062
-0.0106259
0.00876091
-0.0135152
0.00203191
0.0189354
-0.0152256
-0.0100164
-0.00431991
0.00596967
0.018783
-0.00581675
0.0318275
-0.0188828
-0.00697784
0.0378762
0.0324671
-0.017276
-0.0212417
-0.0128708
0.00279305
0.0406796
0.0072727
-0.0287216
-0.00419678
0.0525137
-0.00394675
0.000158056
-0.0052595
0.00115403
-0.00389252
0.00308181
0.00349822
0.00142459
0.00559265
-0.0144075
-0.0027393
0.00410328
0.00514814
-0.00301388
0.00993994
-0.0165144
0.0010104
0.0141866
0.0437395
-0.038563
-0.0128029
0.0176086
0.0160069
0.00280681
0.00646525
0.0184602
-0.00841629
0.0122741
0.00523785
0.0069124
0.00546985
0.0157001
-0.0267788
0.0142106
0.00550218
-0.00247496
0.00355664
0.0131259
0.00361508
0.0096089
0.00412809
0.0117607
-0.00459395
0.0122792
0.0107758
-0.00986497
-0.0238244
0.0415416
0.0441572
-0.0154844
0.0866049
-0.0300946
-0.0123461
0.0548605
-0.00777418
0.0810896
0.0552415
0.0356776
-0.0173105
0.0552496
0.0229248
0.0049481
0.0585382
0.00870065
0.00519145
0.0630904
-0.0161388
0.00861343
0.0679503
-0.0362034
0.00982342
0.0723022
-0.045224
0.00970342
0.0765339
-0.0456682
0.00933819
0.0810742
-0.0416863
0.0081863
0.0853935
-0.0373929
0.00741039
0.0890891
-0.0337757
0.00707212
0.0921242
-0.0307682
0.00685477
0.0946052
-0.0282685
0.00664893
0.0966252
-0.0260685
0.00641577
0.0982541
-0.0241495
0.00619304
0.0995667
-0.0224768
0.0059813
0.100627
-0.0210241
0.00578628
0.101497
-0.0197625
0.00560114
0.102208
-0.0186506
0.00542563
0.102806
-0.0176739
0.00525788
0.103323
-0.0168002
0.00510013
0.103759
-0.0159649
0.00494321
0.104122
-0.0151593
0.00479467
0.104412
-0.0143211
0.00464488
0.104631
-0.01337
0.00449164
0.104785
-0.0121816
0.00429841
0.104917
-0.0105335
0.00405037
0.10519
-0.0081584
0.00368958
0.10631
-0.00487484
0.00307644
0.109461
-0.00107225
0.0021067
0.112453
0.00198367
0.00224219
0.106683
0.00503715
0.00437755
0.0907949
0.0132192
0.00608191
0.0309414
0.00717598
0.152636
-0.157028
0.0294882
0.00584323
0.115632
0.0310744
0.00510667
0.0934204
0.0410111
0.0011986
0.0577707
0.0045701
0.080848
-0.159351
0.0055063
0.102298
-0.179866
-0.00190946
0.0261678
-0.065441
-0.00569854
0.136247
-0.122151
0.0567827
-0.0447083
0.125241
-0.0900937
0.0479825
0.0909584
-0.0162522
0.0187546
0.0773191
-0.00995418
0.00929236
0.0749749
0.000449267
0.000229175
0.0961589
0.00418294
-0.0114476
0.0550255
-0.0316734
-0.0325008
0.0346767
0.00444728
0.0441413
-0.121249
0.000526766
0.044082
0.000348356
-0.0224889
-0.0336456
-0.0435027
-0.0216276
0.0484933
-0.032762
0.0037717
-0.0531513
0.0798079
0.0263679
-0.097376
0.0396911
-0.0372409
-0.0462666
0.0911368
-0.101941
-6.78891e-05
0.0844509
-0.129097
-0.00301927
0.143234
-0.00137307
-0.129579
0.0721752
-0.00179787
-0.110415
-0.0538237
-0.00290446
0.118022
-0.0972631
0.060596
-0.00415008
-0.0709672
-0.00181768
0.0351371
-0.0691603
0.0147001
-0.0761165
0.0367987
-0.0913044
-0.0768885
0.0582981
0.107034
-0.0933942
0.0549625
0.0380239
0.00548
-0.0401645
0.0443164
0.0727456
0.0449349
0.0207482
-0.00114289
0.00369051
-0.0206998
-0.118965
-0.0275845
0.149298
0.000804808
-0.0269959
-0.0547494
-0.0376136
-0.0555708
-0.0267268
-0.0575671
-0.0422097
0.00510337
0.057064
-0.0360242
-0.095615
0.108676
-0.0346
-0.0915196
-0.079225
0.00208197
-0.104545
-0.00208403
-0.116467
0.0852484
-0.0741012
0.000781022
-0.138459
-0.0671338
-9.97461e-05
-0.136186
-0.0523763
0.00129583
-0.12748
-0.0256977
0.00149804
-0.124647
0.00449997
0.00155076
-0.127212
0.0331442
0.00045719
-0.133318
0.0632912
-0.000352999
-0.130195
0.0901017
-0.000110852
-0.106111
0.103727
0.00253118
-0.0209617
0.0400959
0.00521747
-0.0964623
-0.0429888
0.0825034
0.0359877
0.0669999
-0.0415066
-0.0263694
0.040537
0.00984524
-0.0971391
0.0462901
-0.00368695
0.0281706
-0.0379337
-0.00286249
-0.0196489
-0.0366939
-0.0783134
-0.00328891
0.0215857
0.022086
-0.0973324
-0.00425883
0.0265718
-0.0306686
-0.0381184
-0.0258527
-0.00269279
-0.0465363
0.00859476
0.0102939
-0.0030201
-0.0858833
0.0196228
0.023613
-0.00388882
-0.0959804
0.0210761
-0.00447755
-0.106929
0.017136
-0.00464271
-0.103071
0.00796378
-0.00448133
-0.0282395
-0.040217
-0.031955
-0.00267095
-0.0367661
0.00556745
0.00568647
-0.00272791
-0.0433357
0.00450521
-0.00348804
0.00555166
-0.0465343
0.00208808
-0.00382967
0.00493925
-0.0479282
0.000752539
-0.00398179
0.00462257
-0.0483439
3.00614e-05
-0.00406773
0.00445307
-0.048137
-0.000490148
-0.00412111
0.00440355
-0.0475222
-0.000822473
-0.0042202
0.0044272
-0.0466347
-0.00106489
-0.00431961
0.00449614
-0.0455483
-0.00127496
-0.00440553
0.00459317
-0.044316
-0.00146611
-0.00449239
0.00472565
-0.0429347
-0.00166715
-0.00456311
0.00484878
-0.0413994
-0.00186994
-0.00464856
0.00498309
-0.0396986
-0.00209587
-0.0047233
0.00511804
-0.0377876
-0.00235062
-0.00480129
0.00524016
-0.0356331
-0.00263148
-0.00488125
0.00535734
-0.0331878
-0.00294063
-0.00496718
0.00546167
-0.0304126
-0.00326206
-0.00508183
0.00556819
-0.0272528
-0.00359226
-0.00524447
0.00567643
-0.0236156
-0.00392187
-0.00548355
0.0057674
-0.0193251
-0.00425426
-0.00583509
0.00579791
-0.014009
-0.004602
-0.00635382
0.00563917
-0.00701674
-0.00502378
-0.00706868
0.00510041
0.00302927
-0.00565493
-0.0082852
0.0038947
0.0152415
-0.00531611
-0.00978577
0.00288998
0.0225497
-0.000627543
-0.00861142
0.00192887
0.00775574
0.0155101
-0.00632152
0.00560665
0.00714059
0.000132186
0.00048875
0.00219523
0.00567174
-0.000715084
-0.0278247
0.0248015
-0.00258945
-0.0112468
0.00295106
0.013287
0.00801121
0.0248971
0.0151511
0.0347473
0.0135176
0.0429575
0.0123298
0.0495906
0.0116755
0.0550447
0.0111506
0.0596107
0.0106763
0.0634677
0.010249
0.066742
0.00985554
0.0695279
0.00949042
0.0719147
0.00914346
0.0739672
0.00881088
0.0757582
0.00849628
0.0773431
0.00818749
0.0787381
0.00789875
0.079976
0.00762461
0.0810358
0.00735031
0.0818798
0.00709254
0.0823933
0.00685887
0.0823775
0.00662635
0.0814509
0.00643536
0.0789557
0.00618013
0.074103
0.00567963
0.0653741
0.00476454
0.00350332
-0.00125527
0.0288592
-0.0503737
0.0381356
-0.00526244
0.026676
-0.00367607
-0.057131
-0.0329469
0.117324
-0.0489229
-0.0444148
0.0034749
-0.0528015
0.000871488
0.00402588
-0.057058
-0.00234045
0.00276466
-0.0589682
-0.00409899
0.00202541
-0.0595111
-0.00510891
0.00158229
-0.0592699
-0.00571913
0.00135488
-0.058607
-0.00614344
0.00125793
-0.0576844
-0.00647102
0.00122622
-0.056576
-0.00674837
0.00123224
-0.0553205
-0.00701566
0.00126631
-0.0539155
-0.00728136
0.00131184
-0.0523573
-0.00757186
0.00136332
-0.0506056
-0.0078963
0.00141892
-0.0486235
-0.00824772
0.00146184
-0.0463806
-0.00862424
0.00149798
-0.0438165
-0.00904138
0.00150858
-0.040884
-0.00950013
0.00148455
-0.0375197
-0.0100187
0.00140875
-0.0336357
-0.0106205
0.00125187
-0.0290599
-0.0113623
0.000951773
-0.0235008
-0.0123116
0.000401005
-0.0165854
-0.0136276
-0.000351721
-0.00813017
-0.0155425
-0.00119086
0.00328398
-0.0183184
-0.00287226
0.0150436
-0.0147163
-0.00564486
0.00402099
0.00460581
0.000110844
0.0051167
-0.000969415
0.00386814
-0.00189953
0.00314665
0.00122169
0.0030725
-0.000421492
0.0145706
0.0103888
-0.000175046
-0.02358
-0.0443429
0.0500625
-0.00202318
0.0108977
0.00322108
-0.0588287
0.011252
-0.0725336
0.0717568
0.00400816
-0.0500104
-0.00841637
-0.0141239
-0.0449819
0.0193302
-0.0525197
0.028154
0.0412536
-0.0171513
-0.0325588
-0.0365247
-0.0041392
0.00587842
-0.0348555
0.000303944
0.0274997
0.00290482
0.000320317
-0.0135755
-0.0216979
0.000127369
-0.0132653
0.000594515
-0.0207889
0.0338094
-0.022005
0.0111445
-0.00239914
-0.00348527
0.00423512
-0.0175746
-0.0051837
0.0182884
-0.0116053
-0.00370516
-0.00646122
0.00619374
0.0163675
-0.00427371
0.0215276
-0.0105891
-0.00474557
0.0517155
0.0158246
-0.0354279
-0.0454308
0.0182542
0.050551
0.028336
-0.0319255
0.0389041
-0.0365847
-0.00442582
-0.00305103
-0.00444444
0.00306989
-0.00534922
-0.000105596
0.00424798
0.00334796
0.00517736
-0.0181223
5.35917e-07
0.0091841
0.00351492
-0.00845324
0.0101736
-0.0112722
-0.00485051
0.0272738
0.00373464
-0.0206911
-0.000200829
-0.0140269
0.0392298
0.00238406
-0.000241823
-0.0135321
-0.00355257
-0.00575022
-0.0143046
0.000121054
-0.000881467
-6.36985e-05
-0.00962865
-0.00372937
-0.00283015
-0.0116728
-0.0039527
-0.00262207
-0.0037723
-0.00804076
-0.00431726
0.00951305
-0.000716466
-0.00710163
0.00880353
-0.00662634
-0.00320063
-0.00329408
0.015604
0.00528803
-0.00523328
-0.00685411
0.0143881
-0.00715827
-0.0148227
-0.00104988
-0.00372721
-0.0125723
-0.00721508
-0.00276707
0.0123622
-0.00995729
-0.00579904
-0.00130691
0.00212959
0.000383236
-0.00784588
-0.000722492
-0.00390158
-0.00159158
0.00169309
-0.00601199
-0.0029343
-0.00537612
-0.00238146
-0.00507885
-0.00210064
-0.00433564
-0.00534514
0.000559077
0.00674035
0.00883377
-0.00693115
-0.00406377
-0.0021737
0.0114018
-0.00557224
0.00601267
-0.00300824
-0.00742916
0.00890981
-0.00530448
0.0104104
-0.0080483
-0.00620628
-0.00358435
0.0146391
-0.00901018
-0.00523431
0.0147791
-0.0117927
-0.00723066
0.00176881
-0.00426586
0.0104203
-0.00379346
-0.00485838
0.0301329
0.027271
-0.0299482
-0.0170323
-0.00462482
0.00172293
0.0364878
-0.00345874
0.0395547
-0.0141269
-0.014354
-0.0263366
0.000772151
0.0794783
-0.00380918
0.00364693
-0.0140144
0.00656093
-0.0171135
0.00839315
-0.00757282
0.00391607
0.0297002
-0.0431565
0.01189
0.014887
-0.048364
0.0175512
0.00959185
-0.0113385
-0.00468769
0.0603301
0.0727855
0.0766337
-0.0504337
0.0406332
-0.0792857
-0.0111681
0.0155474
0.0450575
0.0233414
0.0117634
0.022488
0.0280047
-0.0734266
0.0116316
0.00790855
-0.0039265
0.00305597
0.0125019
0.0070837
0.0114764
0.00549484
-0.0159778
0.0175705
-0.00651117
0.0150649
-0.0151684
0.061616
0.020197
0.160137
-0.00305982
0.11726
-0.104352
-0.149792
0.147034
-0.00122344
0.0977949
0.0267737
-0.110243
0.120358
0.000256282
0.0765607
0.0167671
-0.0669209
0.0926052
0.00197863
0.057408
-0.00896062
-0.0226692
0.0787873
0.00189345
0.0395025
-0.0193068
-0.0082846
0.0655655
0.00228177
0.0257754
-0.0146342
-0.000209276
0.0557142
0.00140456
0.0185562
-0.0107501
0.000636875
0.0462129
0.000978762
0.0131795
-0.00604345
0.00139046
0.0408375
0.0014739
0.0120115
-0.00447019
-0.00363614
0.0393349
0.00208296
0.0112888
-0.00449986
-0.00736718
0.041377
0.00257217
0.0110798
-0.00551757
-0.0101758
0.0455553
0.00282583
0.0110521
-0.00655217
-0.0115047
0.0507046
0.00295056
0.011237
-0.00726443
-0.012074
0.0560352
0.00298517
0.0116347
-0.00766645
-0.012286
0.0611508
0.0029467
0.0121882
-0.00788014
-0.0123718
0.0658831
0.00286371
0.0128037
-0.00799181
-0.0124086
0.0701852
0.00276559
0.0133696
-0.00804266
-0.0123955
0.0741017
0.00267335
0.0137802
-0.00805305
-0.0123182
0.0776471
0.00259086
0.0140807
-0.00803762
-0.012181
0.0808612
0.00252166
0.0142794
-0.00800462
-0.0120118
0.0837821
0.00245995
0.0143542
-0.00793158
-0.0118047
0.0864373
0.00240313
0.0143618
-0.00782643
-0.0115947
0.0888193
0.0023456
0.014336
-0.00768307
-0.011382
0.0909001
0.00229168
0.014348
-0.00750283
-0.0112196
0.0926607
0.00224138
0.0144333
-0.00727569
-0.0111621
0.0939902
0.00220337
0.0146981
-0.00697726
-0.0112563
0.0947303
0.0021736
0.0152866
-0.00655382
-0.011649
0.0946007
0.00214452
0.0163914
-0.00589695
-0.0125109
0.0931309
0.00209834
0.0182067
-0.00481186
-0.0140257
0.0898368
0.00198395
0.0211343
-0.00300348
-0.0168223
0.0957952
0.00154722
0.0232562
-0.00190445
0.0880949
0.00205365
0.024897
-0.0112862
0.08095
0.00146916
0.030082
-0.00726783
0.0702276
0.000576268
0.0457383
-0.0145123
-0.000958096
0.0529725
-5.97115e-05
0.0378964
0.0708492
0.00668454
-0.000571534
0.0446687
0.0304458
-0.00988421
0.0443863
-0.0584358
-0.00708414
-0.0348711
0.107653
-0.0450308
-0.0545627
0.00678724
-0.09921
0.0185249
0.0222338
-0.111179
-0.0115736
0.0190642
-0.123409
-0.00660911
0.0141983
-0.0137788
0.00321171
-0.116041
0.0988741
0.00197702
0.00141081
-0.103748
0.00604092
0.0083935
-0.0267304
-0.106199
0.0027251
0.00505385
-0.00532986
-0.108287
-0.00246468
0.00185231
0.00269889
-0.109262
-0.00601461
-0.000274114
0.00726245
-0.109583
-0.0082146
-0.00140459
0.00993885
-0.109467
-0.00960515
-0.00210521
0.0115927
-0.109105
-0.0105383
-0.00252718
0.0127006
-0.108547
-0.0112646
-0.00282016
0.0135239
-0.10784
-0.0118874
-0.00305532
0.0142332
-0.107005
-0.0124857
-0.00326747
0.0149157
-0.106008
-0.0131073
-0.00348411
0.0155922
-0.104842
-0.0137664
-0.00371732
0.0163155
-0.10351
-0.0144836
-0.00397934
0.0171286
-0.101976
-0.0152891
-0.00428745
0.0180399
-0.10014
-0.016216
-0.00465425
0.0190325
-0.0979259
-0.017273
-0.00507841
0.0201355
-0.0952584
-0.0184882
-0.00556036
0.0213798
-0.0920279
-0.0198929
-0.00611041
0.0227723
-0.0881029
-0.0215383
-0.00674581
0.0243594
-0.0833419
-0.0234712
-0.00750739
0.0262185
-0.07751
-0.0258809
-0.00846675
0.0285175
-0.0703567
-0.028989
-0.00966593
0.0315036
-0.0615894
-0.0328801
-0.0111071
0.0352221
-0.0505544
-0.0367686
-0.0126737
0.038409
-0.0397652
-0.0365712
-0.0145806
0.0403648
-0.0147173
-0.0266666
-0.00981883
0.0114426
-0.00449367
-0.0067209
0.00193819
-0.005442
-0.0300187
0.0123671
0.0235448
-0.0515108
0.0268846
0.0446389
-0.0482601
0.0305956
0.037927
-0.0444257
-0.0122473
-0.0249941
0.00433952
0.00583785
-0.0296132
0.011766
-0.0197865
-0.0155114
-0.00145939
-0.0215587
-0.0363514
-0.00598309
-0.0107125
-0.0048642
0.0168669
-0.0184638
-0.00438652
-0.0112009
-0.00449607
-0.0222688
-0.0025065
0.00445145
-0.00386823
-0.0176437
-0.00520925
-0.0146363
-0.00250965
-0.00973242
-0.00118396
-0.00378128
0.000128677
-0.000939846
-0.00705045
-0.00187
-0.000573547
-0.00701712
-0.00190905
-0.00858426
-0.0019687
-0.000987079
0.000249087
-0.00652967
-0.00131621
-0.000999106
-0.00449474
-0.00150518
-0.00203107
-0.00402688
-0.000317324
-0.00171052
-0.00381731
-0.00158158
-0.00342657
-0.00410736
0.00047853
-0.0033277
-0.0054931
-0.00153607
0.00522943
-0.00423145
-0.00326616
-0.00105863
0.00676839
-0.00394838
-0.00165385
-0.00476553
-0.00208651
0.00663587
-0.00550468
-0.0043911
-0.00150541
0.00846007
-0.00564544
-0.00238507
0.0104459
-0.00755261
-0.00344328
0.0119639
-0.00978928
-0.00352093
0.0108439
-0.00267401
0.0273963
-0.0132737
-0.00327947
0.00249513
-0.00505676
0.0272322
-0.020851
-0.00388338
0.0448668
0.0501089
-0.0465513
-0.0211967
0.0775037
-0.0319719
-0.000686737
-0.0186534
0.0909449
0.00520852
0.028616
0.00284249
0.0332839
-0.00293958
0.0246057
-0.0443636
0.0518646
0.0011703
0.082588
-0.0207368
0.0853592
0.040022
0.0366922
0.110566
0.0492096
0.00664632
0.108954
0.0296854
0.00760339
0.114463
0.0109493
0.00647351
0.125271
-0.0067738
0.00467708
0.13052
-0.0248414
0.0034533
0.132492
-0.0384257
0.000247688
0.132538
-0.0438816
-0.00139566
0.132646
-0.0432574
-0.00252326
0.134071
-0.0395687
-0.00354454
0.136347
-0.0356508
-0.00401865
0.138439
-0.0318076
-0.00406048
0.140227
-0.0286364
-0.00391786
0.141656
-0.0260095
-0.0036864
0.142792
-0.0237743
-0.0034276
0.143677
-0.0218933
-0.00313928
0.144362
-0.0203229
-0.00283696
0.144883
-0.0190107
-0.00253459
0.145273
-0.0179012
-0.00225174
0.14558
-0.0169662
-0.00199239
0.145811
-0.0161405
-0.00176538
0.145966
-0.015397
-0.00155975
0.146083
-0.0147043
-0.00138021
0.14616
-0.0140154
-0.00122337
0.146216
-0.0132931
-0.001087
0.14629
-0.0124772
-0.000969911
0.146467