/*--------------------------------*- C++ -*----------------------------------*\
  =========                 |
  \\      /  F ield         | OpenFOAM: The Open Source CFD Toolbox
   \\    /   O peration     | Website:  https://openfoam.org
    \\  /    A nd           | Version:  7
     \\/     M anipulation  |
\*---------------------------------------------------------------------------*/
FoamFile
{
    version     2.0;
    format      ascii;
    class       volScalarField;
    location    "18.9";
    object      p;
}
// * * * * * * * * * * * * * * * * * * * * * * * * * * * * * * * * * * * * * //

dimensions      [1 -1 -2 0 0 0 0];

internalField   nonuniform List<scalar> 
15010
(
-43425.7
-45314.2
-44799
-46581.4
-47361.6
-47415
-48159.5
-48203.7
-48305.3
-48242.1
-48200.9
-48133.9
-47390.6
-47337.2
-46561
-44790.6
-45293.7
-43553.7
-45798.1
-45781.3
-46562.2
-46225.2
-46174.3
-46786
-47564.2
-47765.2
-48336.2
-48368.5
-48370.7
-48339.7
-48359.7
-48298.7
-47729.4
-47533.5
-46768.8
-46167.8
-46216.1
-46600.2
-47071.9
-47047.5
-46981.1
-47067.1
-47309.7
-47960.3
-48170.5
-48664.1
-48661.4
-48611.3
-48597.2
-48656.9
-48628
-48129.9
-47929.2
-47285.5
-47048.1
-46974.3
-47649.4
-47562
-47545.1
-47646.6
-47823.9
-47976.2
-48503.7
-48683.8
-49101.4
-49078.1
-48995.3
-48985.6
-49081.4
-49086.9
-48662.5
-48485.7
-47960.2
-47805.5
-48613.5
-48404.9
-48264.2
-48244.5
-48410.9
-48610
-48717.5
-49153.7
-49310.4
-49647.9
-49613.2
-49522.4
-49519.8
-49635.2
-49657
-49304.9
-49155.1
-48713.8
-49474.3
-49380.2
-49177.4
-48990.6
-48963.5
-49164.6
-49368.1
-49446.2
-49837.2
-50033.5
-50340
-50305
-50216.7
-50217.8
-50330.1
-50352.3
-50036.7
-49851.5
-50666.4
-50293.1
-50188.5
-49979.3
-49741.2
-49712.8
-49964
-50171.2
-50269.7
-50636.8
-50881.7
-51173.1
-51151.1
-51077.2
-51080.4
-51174.6
-51188
-50887.8
-51860.6
-51530.9
-51146.2
-50984.9
-50772
-50478.6
-50445.5
-50756.9
-50969.5
-51128.3
-51515.6
-51852.3
-52152
-52154.9
-52111.1
-52112.9
-52166.5
-52155.1
-53274
-52923.3
-52439.6
-51945.1
-51649.4
-51376.7
-50938.4
-50902.2
-51364.5
-51640.1
-51929
-52428
-52932.5
-53275.1
-53315.5
-53316.6
-53318.9
-53314.4
-54627.3
-54531.3
-54075.7
-53292.2
-52548
-52010.4
-51623.9
-50905.3
-50853.1
-51601
-51989
-52522.9
-53280.3
-54089.1
-54540.1
-54634.1
-54691.9
-54696.4
-56195.8
-56084.3
-55931.7
-55263.4
-54037.9
-52867
-51909.4
-51503.2
-50414.7
-50347.4
-51467.9
-51859.4
-52819.4
-54015.4
-55273.1
-55941.1
-56101.2
-56184
-57761.1
-57794.4
-57628.1
-57454.4
-56581.7
-54808.6
-53033.1
-51339.9
-50789
-49474.3
-49389.7
-50718.7
-51258
-52952.5
-54768.2
-56568.4
-57472.2
-57663.1
-59013.6
-59874
-59887.9
-59019.8
-59035.5
-58155.6
-55672.7
-53405.4
-50954.6
-49384.3
-47105.8
-46999.7
-49291
-50863.7
-53318.4
-55617.9
-58134.6
-59043.7
-60628.8
-60019.3
-63819.6
-63803.9
-60133.7
-60658.9
-60144.2
-56494.2
-53907.4
-51372.3
-47629.3
-42898.7
-42776.1
-47527.4
-51301.8
-53821.3
-56436.2
-60128.9
-60525.4
-64627
-69602.7
-62505.6
-60856.8
-61892
-67028.7
-71548.9
-70064.3
-66419.3
-66343.8
-69470.5
-62523.8
-64580.3
-60552.2
-56515.7
-53027
-49198.5
-47897.9
-47796.8
-49066.3
-52891.8
-56421.2
-55579.8
-60731.2
-60234.4
-68429
-75687.5
-72475.4
-72328.9
-69943.5
-71415.6
-66962
-60787.4
-55692.4
-50913
-46977.7
-46880.5
-46708.1
-46787.8
-50743.6
-47303.1
-54216.6
-49780.9
-57523.6
-67752.2
-76545
-80893.4
-91356.1
-76564.3
-76394.4
-80641.5
-76359.4
-75472.6
-68374
-60280.3
-54321.8
-47530.7
-43304.9
-45290.3
-45231.8
-43186.1
-44181.5
-45308.9
-40722
-45455.4
-53148
-64267.8
-73515.3
-79400.4
-88845.8
-88714.1
-91110.5
-69196.2
-66954.3
-79247.3
-73366.6
-64232.8
-67665
-57599.3
-49952
-45433.7
-42463.1
-44315.9
-52805.1
-55253.4
-52871.8
-49583.4
-45639.8
-40858.6
-38350.5
-31835.5
-31856
-38151.3
-36966.1
-33839.6
-32785.7
-38935.5
-45899.7
-56035.3
-65963.3
-76308.2
-76437.8
-57557.3
-52460.8
-54961.5
-59132.2
-61204.9
-60427.6
-59901.5
-58015.4
-53559
-43959.5
-33445.5
-28215.1
-27289.9
-25520.1
-30808.2
-32831.2
-33956.2
-32105
-33908.8
-34602.1
-35176
-35392.2
-35928.4
-36391.3
-36482
-36408
-36234.5
-36005.2
-35725.8
-35502.9
-35337.7
-35230.5
-35185.9
-35223.5
-35350.2
-35573.7
-35896.7
-36332.9
-36902.5
-37634.6
-38549.3
-39727.6
-41284.8
-43543.3
-47338.2
-54652.3
-64886.6
-71027
-68836.2
-63558.1
-92930.5
-21398.2
5372
17788.1
15450.6
25921.6
33042.6
32591.7
30858.5
31534
18074.2
11630.8
12005.8
25918.5
31159.3
30686.2
31110.3
31674.4
31103.7
31803.7
23862.2
34427.1
23187.1
24072.6
23089.8
20931.1
13617.8
18272.9
19400
11065.4
12827.7
3241.5
4519.54
-26000
-52350.9
-62822.5
-55415.3
-63124
-67611.9
-60410.6
-50828.7
-44754.9
-41838.5
-40159.6
-38824.2
-37809.7
-37001
-36389.4
-35878
-35480.5
-35182.3
-34978.1
-34864.4
-34842.6
-34901.3
-35025.5
-35208.4
-35449.6
-35742.8
-36049.4
-36297.8
-36441.9
-36363
-36301.9
-36403.8
-36576.3
-36110.3
-34388.6
-37579.4
-36026.7
-33367.1
-29960
-34739.5
-45372.3
-54426.2
-74089.4
-68755.8
-79308.7
-83189.1
-83706.5
-80167.7
-76667.9
-79625.2
-94225.8
-87612.6
-87670
-79371.3
-76152.6
-76240.9
-66324.9
-56137.5
-46056.5
-53230
-53436.4
-48364.5
-42859.6
-36872
-31454.4
-30182.8
-34323.6
-39194.5
-33037.2
-33773.2
-25495.9
-25687.8
-29872.9
-31206.9
-36614.8
-45076
-35646.7
-42818.4
-47982.6
-51168.3
-52051.6
-49280.5
-45074.9
-39072.7
-31017.8
-25343.2
-24889.5
-23483.1
-22556.8
-25675.5
-22996.7
-29138
-29984.8
-28147.3
-31638.1
-33748.7
-33441.9
-34926.7
-35124.1
-33361.3
-36189.4
-35942
-35964.1
-35934.1
-35818
-35638.7
-35388.2
-35128.9
-34899.1
-34699.9
-34552.2
-34454.2
-34419.3
-34463.3
-34607.3
-34855.7
-35216.1
-35714.2
-36381.7
-37235.6
-38313.9
-39773.9
-42334.9
-47112
-54979.3
-65247.3
-63650.3
-61461.5
-67390.4
-64689.2
-55957.9
-46958.7
-42653.3
-40121.8
-38537
-37392.1
-36501.7
-35809.6
-35298.7
-34923.8
-34655.9
-34482.9
-34412.1
-34428
-34518.5
-34669
-34864.2
-35101.2
-35361.7
-35585.2
-35702.1
-35736.3
-35718.6
-35551.7
-34962.3
-36481.9
-36637.1
-32450.4
-35958.1
-35865.1
-35915.4
-35933.2
-35866.2
-35702.7
-35444.2
-35172.8
-34937.6
-34729.4
-34577.9
-34472.5
-34438.4
-34483.3
-34624.7
-34877.9
-35248.4
-35762.7
-36451.1
-37346.8
-38495.1
-40057.5
-42536.8
-47360
-55410.1
-65809.8
-64890.4
-63735.6
-61391.5
-58365.5
-86288.7
-51230.6
-60201.8
-20159.3
9994.71
17573.3
6594.23
18211
27928
27921.8
29347.4
32057.7
31774.7
29705.4
30095.4
21521.8
9971.68
17527.3
27093.9
30291.6
31533.5
31930.5
32283.8
32006.2
31556.2
32468.8
33155.1
31860.3
32436.8
30721.7
30530
30476
30601.9
30462
30873.7
31345.1
32645.8
31342.2
31797.8
30504.9
29284.9
29469.8
29430.3
29348
29271.8
29144.8
30415.3
31499.6
31615.4
32825
32917.6
32225.8
32667.2
25957.2
26717.5
22863.8
1245.22
-12497.5
15313.6
5532.88
22848.4
25578.5
24798.8
19517.3
13908.3
22670.3
-5145.66
-12939.6
-22427.3
-36363.2
-42077.9
-22361.1
-21927
-8019.04
-3373.63
6296.47
-20743.9
-48503.3
-65906.9
-69514.4
-62553.7
-52510.5
-47770
-44570.3
-42912.9
-41747.1
-40567.3
-39388.7
-38362.8
-37557.3
-36954.5
-36506.7
-36180.3
-35968.5
-35851
-35813.1
-35845.5
-35941.9
-36098.6
-36308.9
-36567.5
-36830.1
-37074
-37294.3
-37511.8
-37823.3
-38069.4
-37964.9
-36991.5
-36842.8
-31381.4
-30662.3
-35538.1
-35895.4
-26994.5
-30675.7
-33067.6
-32827.2
-34604.3
-34996.9
-35289.5
-34965.3
-35926.3
-36495.3
-36607.4
-36532.6
-36353.6
-36094.9
-35857.2
-35670.2
-35527.3
-35448.6
-35429.5
-35463.1
-35563.6
-35777.9
-36112.9
-36577.4
-37186.3
-37948.9
-38880.7
-40038.1
-41539.3
-43657.7
-47079.3
-54390.7
-65459
-71458.4
-72734.7
-66374.2
-98898.1
-23125.7
6441.55
18797
21527.6
30001.5
29643.6
27058.7
29401
32149.7
32482.6
30700.1
29578.9
29568
29497.7
28142.5
28135.4
28095.5
28026.7
27922.5
27786.8
27655.6
29022.7
30368.2
30282.1
31616.8
32922.1
34143.7
34452.7
34013.3
30993
31900
25860.3
27863
25481.7
28107.9
26455.5
13392.5
810.747
-5430.97
-15859.4
-33179.4
-42696
-51112.8
-56139.6
-53761.5
-47962.7
-44104.5
-42246.1
-40721.8
-39320.4
-38270.1
-37514.7
-36992.5
-36549.6
-36177.9
-35900.1
-35716.1
-35610
-35581.7
-35618.7
-35717
-35875.2
-36098.6
-36390.9
-36741.1
-37129.3
-37551.9
-38007.9
-38497.2
-38903.3
-39398.8
-39492.8
-45990.4
-44499.4
-42892.1
-39843.4
-48372.2
-62188.6
-61476.9
-66562.4
-74581.7
-80767.1
-75532.2
-81020
-80956.6
-84370.5
-86280.7
-87312.9
-87594.8
-94292.4
-56674.1
-58368.4
-48885.1
-38604.9
-33844.3
-24048.2
-19333.1
-20108.2
-21792.2
-22605.4
-22578
-21532.5
-22212.8
-21680
-16881.5
-21478.4
-18219.8
-22961.4
-20246.5
-19042.5
-24698.9
-21673.3
-28097.4
-29360.2
-30318.3
-32369.7
-34033.1
-32075.1
-33497.3
-34571.4
-36114.5
-36630.2
-36385.9
-36406.4
-36554.7
-36548.6
-36312.8
-36003.2
-35669.7
-35372.2
-35130.6
-34944.2
-34820.3
-34767.6
-34787.6
-34877.7
-35053
-35334.9
-35724.4
-36214.9
-36769
-37490.3
-38447.8
-39687.8
-41106.4
-43513
-49198.6
-58910.3
-67425.7
-65331.6
-53591.3
-74146.3
-55499.8
-32700.1
-3910.46
2315.75
13398.1
26298.7
30559.7
32424.1
32855.4
31028.8
32638
31439.6
31834.4
30541.4
30575.2
29552.1
28200.7
28204.4
28187.3
26838
26816.2
26823.3
26795.2
26729.7
26608.7
26452.4
26297.9
26155.6
27514.9
28889.9
28753.2
30135.6
31509.5
32848.7
34097.2
34957.8
35226.8
33014.3
31771.2
33896.1
37240.9
39601.5
40517.9
40997.7
41059.3
40745.7
40606.3
40692
41082.8
40965.7
40823.7
40272.4
39344.1
35284.3
27062.6
17745.5
11887.4
-3076.87
-16632.5
-32354.5
-43166.8
-48321.5
-50505.9
-48857.5
-44896.5
-42056.5
-41056.7
-39676.7
-38561
-37538.1
-36850
-36421.1
-36026.3
-35663.7
-35392.8
-35223.3
-35138.5
-35133
-35196.6
-35327.8
-35527.2
-35800.6
-36156.9
-36596.9
-37139.8
-37780.7
-38559.2
-39498.9
-40384.7
-41342.8
-43911.1
-46415.5
-47363.1
-50608
-51594.1
-64294.6
-65562.9
-75464
-75797.8
-74918.6
-81240.5
-81490.5
-81652.9
-84998.7
-86684
-84131.4
-80355.5
-76650.4
-59116.7
-55027.1
-45274.7
-35901.1
-30707.2
-24800.2
-24106.3
-24158.1
-24452.2
-30457.6
-26422.7
-22536.6
-27966
-32823.7
-35536.5
-38130
-38399.3
-37150
-34037.3
-28875.8
-24229.9
-23602.5
-21254.2
-20699.5
-30619.1
-30835.7
-17028.8
-22008.7
-20658.6
-21095.2
-24367.2
-23272.4
-26675.6
-25186.6
-29685.8
-33378.4
-36380.1
-37637
-39668.4
-39596.6
-39021.9
-38546.1
-38031.5
-37565.7
-37121.2
-36711.6
-36354.9
-36062.7
-35840.2
-35681
-35584.4
-35556.9
-35591.3
-35691.4
-35871.5
-36161.8
-36556.5
-37012.1
-37523.8
-38246.3
-39302.3
-40604.7
-41985.7
-43354.1
-46719.5
-52653.3
-56797.6
-53513.6
-42440.2
-33606.5
-32565.6
-10656.5
-1528.99
11843.5
10205.6
20382.5
11861.9
19262.5
31181.1
32905.1
32908.5
31787.3
31579.9
31666.7
30976
30557.3
30695.2
29534.2
29555.3
28222.8
26915.4
26876.9
26858.9
25475.9
25456.3
25445.1
25578.9
25572.8
25513.3
25385.1
25101.6
24940.4
24804
24691.5
26024.6
27374.7
27243.4
28631
29984
31341.5
32684
33929.5
34954.4
35753.2
36392.8
36242
36244.6
38502.7
39128.3
39728.9
40638
40975
41028.7
40642.6
40776.8
40122.1
39738.5
38812.1
39038.7
38886.7
39298.2
40066
38640.1
37267.6
35889.6
34048.1
33623.4
32300.3
30974.5
29716.4
28390
27146.7
25822.6
24593.1
23281.6
22077.3
20787.9
19582.9
18307.1
17120.5
15840.8
2089.49
3014.75
4049.49
5143.19
5896.78
6654.66
7763.19
8952.89
10080.3
10852.7
11671.3
12874.2
14092.3
15221.8
15981.2
16753.8
17814.4
18528.3
19182.3
19862.2
20515.8
21188.7
21821.9
22472.3
23075.8
23685.7
24241.3
24813
24942.6
25062.2
25572.9
26072.6
26117.4
26138.1
26125.5
26081
26017
25500.7
25216.3
25279.7
25324.3
25336.5
25315.8
25274
24330.9
24240.6
24110.1
23997.1
23042.2
22931
21872.8
21648.9
20578.1
20354.5
19267.2
19020.7
17910.7
17777.7
16597.1
15378.1
15233.5
14116.3
12849.9
11522
10224.9
8969.43
7741.44
6507.97
5265.09
5123.83
4025.31
2992.41
2095.63
2095.86
2977.61
4051.48
3957.54
4668.05
5408.73
6513.9
7731.08
8972.12
10211.4
11368.4
12158.6
12972.4
14146.9
15259.3
15991.1
16743.2
17789.3
18490.6
19137.1
19793.1
20410.1
21029.2
21201
21776.2
22335.7
22457
22996.7
23518.6
23545.3
23554.8
23540.8
23504.7
23451.6
22913.6
22584.6
22637.4
22684.9
22699.2
22679.8
22653.2
21682.5
21640.5
21482.8
20477.4
20365.7
20149.6
19105.1
18971.5
17841.1
17733.1
16603.7
15360.7
15237.4
14122.4
12842.1
11521
10226.6
8966.09
7737.53
6499.8
5261.25
4061.53
3949.33
2966.86
2965.4
2093.47
1056.51
1444.25
2106.55
2983.34
3004.94
4036.21
5130.81
5886.97
6641.17
7748.39
8940.64
10072.6
10850
11667.8
12842.8
13961.4
14689.6
15431.3
16475.8
17148.9
17768.4
18375.6
18545.4
19134.8
19698.2
19804.1
20337
20841.5
20844.3
20829.1
20800.2
20279
19910.5
19927.2
19942.8
19953.1
18990.8
18938.6
18802.7
17792.2
17670.5
17483.4
16486.5
16381.6
15260
14052.5
13924.6
12803.6
11520.2
10237.5
8961.56
7710.2
6465.07
5249.9
5120.49
4058.89
3130.06
2556.28
3152.13
4090.6
4066.47
5202.16
6440.66
7689.6
8966.88
10244
11549.7
12806.2
12780.2
14040.9
15304
15312
16541.5
16568.4
15377
14550.8
15159
15735.7
15852.6
16400.8
16913.3
16906
16380.9
15980.9
15989.7
15014.6
14955.6
14817.3
13816.6
13707.8
13934.6
14113.7
13293.4
12596.1
11496.7
11546.8
10351.4
9555.71
10349.4
10177
11426.2
12512.1
12623.2
11416.7
10183.3
8929.59
8939.01
8817.35
8838.51
7808.58
7088.05
7819.55
7682.46
6470.43
6318.66
6321.23
5192.68
4078.71
3026.05
3024.07
2116.74
2021.34
2022.44
2103.81
2089.57
2087.05
2959.61
3611.08
4297.1
5280.13
5226.76
4230.87
4215.71
4060.37
3053.4
2106.26
4157.8
5269.37
6448.13
7675.47
7668.23
8921.12
10174.9
11418.1
12637.3
12640.9
13835.1
13847.4
12641.3
11409.4
11416.9
10168.5
8913.24
7661.32
6430.76
6440.11
5250.36
4132.57
4110.13
5238.52
5230.04
6421.32
7652.92
8906.16
10163.4
10152.7
11401.4
12631.3
13837.5
15006.1
14921.5
15816.7
15679.1
15093.6
14766.9
13766.6
13803
12611.8
11387.3
10143.2
8889.15
8899.59
7646.23
6415.41
5225.53
4105.54
4110.44
4097.69
5223.11
6413.77
7641.62
7634.01
8881.83
10132.7
11373.2
12589.7
12559.6
13643
14480.1
13854.1
13207.4
12507.1
12437.8
11350.9
11358.5
10125.2
8877.07
7627.2
6406.96
6410.06
5224.91
4111.84
2556.98
3206.98
4134.5
5235.85
5237.08
6417.11
7620.33
8868.79
10106.1
10262.8
9467.46
8743.99
8737.34
7744.34
7012.63
6256.08
5174.31
4189.04
4266.1
3581.84
3065.66
2932.24
2994.25
4032.58
5132.09
6248.01
6354.21
7591.72
8859.02
10129.4
11427.4
12677.4
13919
15117.5
16233.1
16990.1
16310.7
15269.8
14522.6
13794
13773.2
12659.6
11381.2
10104.4
8836.23
7596.31
6365.95
5168.68
5130.88
4013.07
2982.99
1986.78
2514.97
3105.53
4030.63
3990.99
3078.99
2951.57
3962.12
5035.34
5781.34
6529.37
7621.81
8801.24
9925.38
10692.5
9923.19
8792.29
7613.34
6512.01
6369.17
7585.93
8799.6
10052.2
11341
12652
13923.1
15029.2
15771.9
15035.5
13937.1
12773.7
11958
11179.8
11181.5
10025.6
8795.49
7569.89
6374.5
5290.72
5155.48
3978.85
2922.75
2060.5
2065.96
1291.15
2003.56
2558.09
3158.25
4108.37
5268.67
6482.71
7731.16
8972.95
10248.5
11519.1
12785.7
13906.3
14652.7
15452.1
16536.8
17290.8
18063.5
19121.9
19847.2
20511.5
21200.2
21851
22521.1
23147.9
23790.2
24386.8
24993.6
25550.3
26130.5
26341.6
26924.9
27436.9
27493.5
27585.1
27652.1
27668
27655.3
27615.2
27526.2
27412
27335.2
26808
26562.5
26608.3
26699.3
26800.9
26850.3
26862.3
26836.4
26754.7
26690.7
26668.8
25758.4
25561.4
25318.5
24401
24221.5
23213
23001.2
21953.8
21716.4
20640.4
20386.1
19300.9
19075.4
17932.1
16754
16510.9
15318.8
14074.6
12847.5
11654.4
11517.3
10239.7
8965
7714.89
6462.8
5240.41
4078.06
3019.54
2083.21
1990.48
1232.45
1662.62
2200.07
3066.73
4115.26
5251.84
6455.12
7702.08
8971.65
10245.6
11508.1
12753.2
13995.8
15159
15949.6
16749.6
17825.4
18568.2
19332.1
20399.7
21149.9
21808.1
22494.4
23138.8
23805.4
24424.7
25060.5
25646.5
26267.7
26864.1
27444.2
27594.3
27737.4
28240.8
28791.1
28913.6
29057.6
29562.7
29979.7
29950.4
29937.5
29945
29514.9
29247.1
29263.8
29277.4
29282.5
28421
28337.9
28171.3
28037.6
27924.5
26763.8
25520.3
24175.6
22957.4
21636.2
19765.9
19101.1
17209.9
16567
14711.3
13994.8
12790.2
11438.2
10240.5
8885.98
7693.76
6366.22
5227.92
4002.26
3010.54
2024.43
680.849
976.639
1388.19
2100.51
3030.83
4080.98
5228.48
6435.82
7683.08
8951.33
10226.9
11495
12748.6
13970.7
15123.5
15906.9
16730.2
17937
19046.1
19805.1
20471.4
21157.3
21898.9
22989.7
23724.5
24368
25033.1
25647.4
26283.8
26863.8
27451.5
27635.9
28224.2
28847.3
29024.9
29569.2
30052.9
30127.9
30238.5
30319.2
30783.6
31216.1
31194.9
31181.7
31180.8
30733.6
30483.8
30521.3
30534.7
30519.8
30381.1
29303.6
28063.2
26774.5
24767.6
22148.7
19622.5
17073.2
14564.5
10799.7
9390.97
6938.62
4525.29
2481.99
84.8166
174.341
356.964
690.846
1178.79
1622.38
2159.64
3025.64
4067.59
5207.25
6405.6
7640.22
8894.38
10154.9
11411.9
12658.8
13884.6
15045.4
15848.6
16643.4
17858.3
18959.3
19733.7
20495.4
21584.1
22318.4
22971.3
23710.7
24412.1
25452.8
26139.4
26742.1
27407.1
27983.2
28650.2
28928.9
29540.5
30163.2
30680.5
31267.3
31453.7
31975.9
32511.5
32630.2
33072.9
33597.2
33732.7
33777.4
33760.8
33744.7
33761.7
33748.8
33705.3
33698.5
33693
33624.6
33465.1
32925.3
32861.6
33000.9
33100.4
33111.1
33004
32796.3
33340.8
33392.1
33406.1
33378.8
33059.6
33177.4
33187.9
33112.6
32997.7
32500.2
32585.1
32664.9
32674.6
32112.2
32052.4
31960.3
31848.4
31998.7
32069
31885
31368.6
31497.5
30886
30695.5
30806.2
30857.9
30615.9
30077.4
30263.4
29626.4
29374.8
29463.8
29510.9
28913.5
28261.1
28280.2
27946.7
27373.7
27632.1
26928.4
26624.3
26760
26746.5
26168.1
25486.5
25481.2
24434.9
23746.6
24450.3
24462.2
25499.4
25716.7
25037.7
25637
26307.5
26932.9
27592.5
28164.8
28803.1
28993.5
29559.1
30148
30278.7
30796
31319.6
31401.8
31496.9
31546.6
31985.3
32377.9
32363.3
32349.3
32339.5
31929.9
31694.9
31734.3
31749.1
31732.6
31562.5
30512.9
29254.7
27992.5
26684.1
26704.7
24807.5
22168.9
19623.9
17091.2
14600.8
14533.9
12012.5
9434.18
6979.62
4556.86
2509.5
510.576
782.658
1312.88
2074.31
3002.27
4058.91
5207.87
6418
7664.21
8931.27
10205.4
11476.5
12737.2
13985
15237.8
16409.7
17215.1
17983.3
19059.3
19801.2
20541.5
21630.4
22371.1
23048.5
23737
24355.7
24345.3
24147.4
22947.9
21653.3
20426.8
19063.9
17845.7
16500.1
15303.1
13978.2
12112.9
11390.7
10200.5
8860
7682.36
6370.28
5242.01
4027.29
3019.24
2035.57
1283.55
660.67
966.823
1370.3
2074.63
2999.93
4055.16
5202.91
6408.56
7650.89
8912.17
10181.7
11447.9
12703.8
13934.6
15079.9
15854.4
16660.2
17852.6
19010.3
19777.2
20520.1
21609.4
22337.4
23005.7
22992
22816.7
21587.5
20339
19069.3
17794.9
16517.3
14589.8
13888.7
12675.1
11342.8
10157.4
8822.94
7650.13
6342.59
5216.47
4005.05
3001.1
2019.52
1271
711.741
694.823
1202.57
1361.9
2074.77
3011.59
4062.42
5207.52
6408.52
7647.23
8903.81
10169.4
11430.7
12682.4
13904.8
15058.8
15092.3
13904.8
12668.8
11413.5
10156.6
8894.6
7644.46
6407.93
5210.16
4061.07
3010.46
2082.11
1356.27
1267.07
715.796
265.22
398.666
717.596
1226.65
1921.49
2501.27
3120.12
4084.15
5208.98
6405.27
7634.23
8874.6
10125.7
11376
12606.4
13737.6
14496.9
15289
16491.4
17662
18439.3
19184.4
20262.3
21058.6
21796.2
22845.7
23626
24358.7
25391.4
26096.3
26691.3
27373.4
27960.6
28612
29138.2
29852.6
30182.2
30733.2
31305.8
31755.5
32365.9
32595.5
33040
33603.7
33755.9
33886.5
34333.4
34783.9
34851.8
34844.6
34831.2
34874.1
34863.4
34796.5
34788.8
34777
34686.5
34220.6
34135.7
34193.3
34212
34202
34232.2
34244.7
34241.2
34270.5
34269.9
34237.5
33932.5
32888.2
31684.2
29759
29069.7
27215.3
24623.2
22100.7
19525.3
17007.9
14449.3
11960.3
9374.78
6927.77
4499.6
2481.94
924.905
1320.57
2005.01
2911.91
3952.16
5053.19
5827.45
6563.99
7657.95
8825.01
9935.39
10672.2
11467.3
12652.3
13875.4
15118
16308.9
17106.2
17881.4
19056
20201.1
20992.9
21748.8
22828
23548.6
24162.2
24870.6
25571.9
26487.8
27264.5
27852.3
28574.2
29126.4
29813.1
30159.8
30757.5
31327.8
31775.9
32385.2
32661
33143.2
33690.6
33900.3
34337.8
34842.9
34947.7
35006.8
35406.6
35802.9
35836.7
35811.2
35954.1
35947.8
35779.5
35773.2
35714
35316.5
35223.8
35179.4
35122.9
35199.1
35211.1
35157.4
35233.7
35300.2
34879.7
33840.8
32750
31591.1
29767
29087.9
27845.9
26524.5
25299.2
23962.8
22758.5
21418.8
20219.9
18872.3
17671.3
16322.7
15124.9
13775.4
12578.9
11237.6
10048.7
8719.41
7540.85
6234.24
5107.67
3896.22
2927.58
1961.92
1978.77
2857.18
3845.62
4573.27
5303.3
6406.24
7601.37
8811.98
10022
11161.2
11912.8
12704.4
13880.8
15106.6
16324.2
17502.4
18266
19045
20121.2
20947.4
21709.3
22759.8
23544.9
24257.4
25246.3
26005.7
26620.2
27350.4
27987.2
28706.2
29306.4
29979
30534.5
31157.1
31639.1
32286.1
32643
33198.6
33744.3
34158
34737.6
34963.1
35367.9
35936.9
36068.7
36209.4
36526.5
37146.2
37115.3
37200.7
37344.9
37805.2
37810.9
37365.4
37161.8
37042.9
37018.4
36415.2
36485.5
36361.7
36369.5
36205.9
36772.8
36924.9
37265.6
37269.7
36940.3
36838.5
36443.4
36467.9
36614.1
36034
36010
34816.7
33631.1
32700.2
31548
30342
29662.6
28967.9
27745.3
26418.6
25202.5
23866.5
22669.9
21330
20133.1
18797.3
17612
16266.2
15066.6
13726.2
12539.5
11200.6
10003.4
8674.33
7505.3
6204.09
5076.98
3878.28
2927.05
1977.99
187.723
366.827
706.929
1235.61
1945.02
2153
3026.58
4079.1
5212.84
6408.68
7637.97
8886.75
10140.9
11393.8
12634.7
13875.8
15040.2
15045.7
13841.4
12624.7
11365.5
10146.7
8861.58
7647.78
6386.83
5222.77
4070.07
3041.87
2131.92
2018.56
1256.63
717.989
372.021
175.298
1887.93
2422.69
2999
3926.58
4978.38
5745.42
6490.05
7586.61
8750.85
9861.96
10603.8
11396.8
12580.4
13798.6
15034.1
16266.2
17385.4
18148.3
18926.5
19997.9
20840.1
21607.4
22645.2
23438.7
24154.4
25128.3
25880.5
26521.2
27267.2
27957
28655.4
29295.6
29943.3
30541.5
31163.5
31740.6
32359.6
32870.1
33499.2
33810.4
34327.6
34870.1
35288.6
35880
36153.1
36520.8
37167
37444.6
37740.4
38557.6
38844.7
39061.1
39712.4
40270.3
40403.7
41316.7
41375.5
40532.2
40227.2
39534.1
39659.9
39912
40629.9
40598.9
39796.9
39809.5
38902.8
39134.7
39835.8
39840.4
39211.3
38879.3
38603.3
37683.2
37737.3
37799
38095.1
38731.3
38725.4
38058.7
37809.2
37836.4
38634.4
37666.3
38081.1
38011.5
37287.7
37447.9
36311.1
34777.1
33691
32708
31582
30337.8
29097
27822.7
26532.6
25232.9
23933.6
22684
21391.1
20122.9
18835.4
17597.6
16304
15059.5
13762.6
12518.5
11230.5
9996.4
8713.03
7488.11
6231.85
5065.94
3907.2
2901.69
1977.45
3444.19
4054.28
5038.26
6114.07
6876.73
7591.14
8602.3
9302.69
10086.1
11257.7
12470.4
13702.3
14934.7
16090.8
17064
17942.7
18800.2
19908.7
20738.1
21518.1
22559.6
23498.9
24312.4
25054.6
25836.3
26507.4
27223.3
27947.1
28783.7
29537.5
30094.5
30803.7
31331.5
32012.4
32519.2
33173.6
33513.2
34047.2
34667.1
35178.2
35779.3
36057.7
36552.9
37205.9
37691.1
38396.6
38807.7
39139.3
40125.1
40499.5
41124.9
41029.4
40871.7
39833.8
36102.6
35200.4
34836.8
37489.7
36314.2
35671.1
31972
29286.9
16263.9
5397.06
-8576.1
-22235.5
-35777.9
-42565
-43756.6
-42545.5
-41341.3
-40644.1
-39805.5
-39038.5
-38001.1
-37320.6
-36959.8
-36567.9
-36213.2
-35952.7
-35786.2
-35691.9
-35658.5
-35688.7
-35783.2
-35951.8
-36201.1
-36547.7
-37007.6
-37637.9
-38410.2
-39444
-40886
-42539.9
-43505.8
-46600.2
-45938.8
-54372.8
-52622.4
-57816.9
-58937.4
-65249.3
-65409.8
-65731.6
-66748.1
-61991.2
-74484.3
-75742.8
-69201.8
-79591.6
-83335.5
-60338.4
-60801.9
-61179.5
-51549.5
-48277
-43086.7
-33039.6
-28209
-22769.6
-23451.5
-23565.2
-24317.9
-21178.1
-23752.2
-24800.9
-28414.8
-29819.8
-30009.1
-29193.9
-26942.7
-24083.3
-22648.6
-20442.9
-19733.8
-30007.3
-30095.4
-15748.8
-20567.9
-19691.2
-20333.8
-23162.8
-24046.1
-30950.9
-44296
-54971.3
-45773.3
-48808.9
-51979.8
-50891
-47655.7
-46218
-46596.2
-43432.5
-40999.2
-39370.8
-38226
-37394.3
-36745
-36270.7
-35913.5
-35649.7
-35457.6
-35339.1
-35288.6
-35303.3
-35372.4
-35516.9
-35740.5
-36041.8
-36334.6
-36627.5
-37309.5
-38450.8
-39216.7
-39532.8
-40243.5
-40753.1
-41057
-38578.5
-29880.3
-18346
-7130.64
6147.63
17984.1
24939.7
36151.9
35997.2
36384.4
34809.3
32799.1
25180.2
15582.4
5364.72
-7678.04
-20946.5
-32138.5
-39827.2
-41707.8
-41389.2
-40582.9
-39747.7
-39195.8
-38595.8
-37517.4
-36804.2
-36455.1
-36127.4
-35820.9
-35590.6
-35444.6
-35374
-35362.4
-35410.3
-35519.3
-35701.6
-35963.5
-36321.1
-36794.4
-37445.5
-38254.4
-39375.4
-41042.3
-40938.4
-42841
-42906
-46006.8
-54658.4
-59089.2
-57936.7
-64759.6
-62770.3
-45120.9
-43698.8
-38609.4
-33449.2
-25166.9
-34873.3
-36815.5
-33749.3
-35630
-28668.9
-39228.7
-54036.1
-58471.6
-45344.9
-49534.2
-52279.2
-38611.5
-38290.3
-35692.4
-28485.8
-24857
-24124
-27558.8
-25451.6
-24146.1
-20684.1
-23462.9
-23848.4
-24470.3
-24112.4
-24550.2
-25257.5
-24840
-22899
-19033.6
-33093.6
-31064.7
-31200.2
-21337
-19009.5
-22204
-23722.7
-26768
-34104.8
-37363.7
-29275.3
-30196.9
-29963.4
-24554.1
-25261.2
-24956.2
-22944.9
-21874.4
-22782.8
-22758.4
-21792.9
-19540.9
-19905.1
-18672.9
-15342.3
-21891.3
-30224.1
-30548.9
-29792.4
-29547.1
-33581.9
-38276.3
-36772.5
-24214.5
-39819.9
-38588.1
-36594.7
-34072.6
-39424.6
-41271.3
-38456.2
-26591.9
-24902.6
-24904.4
-36724.2
-36817.9
-41954.1
-39731.2
-28014.3
-28128.5
-39880.9
-43962.2
-43942.5
-44975.9
-47678
-55121.9
-47163.7
-47177.5
-53249.2
-58536.6
-60812.3
-53456.9
-48131.2
-45463.3
-36907.7
-48652.9
-39258.8
-39256.6
-42345.7
-48669.9
-45500.8
-48074.9
-49575.8
-44948.4
-34081.1
-48341.7
-42706.8
-38142.1
-41003
-36283
-25419.8
-27320.4
-38211.9
-36334.8
-33701.4
-33672.6
-36373.3
-44339.1
-45684.4
-49525.2
-52886.2
-39895.6
-38403.6
-38355.1
-33343.3
-39802.7
-40019.5
-52208.2
-53009.2
-54738.9
-48029.1
-53327.3
-54427.4
-52427.5
-54088.9
-61301.8
-57084
-61335.4
-54120.1
-44326.7
-39386.8
-34043.5
-47129.2
-41888.5
-47595.4
-55130
-53312.3
-47142.6
-58558.9
-60786.5
-53399.5
-53439
-57341.3
-57471.9
-57529.7
-57296.3
-61237.2
-64597.3
-65253
-62073.1
-59809.1
-59757.4
-54316.4
-51526.1
-51447.5
-52896.6
-55288.7
-54238.9
-51541.7
-51582.9
-53444.8
-55200.8
-56299.5
-55931.4
-60423.2
-60664.6
-61947.2
-64078.3
-62529.2
-60896.6
-60522.7
-56607
-55890.7
-54484.7
-56532.6
-56386.2
-56399.8
-55639.9
-54442.9
-53595
-47917.1
-47888.8
-53548.9
-54378.3
-54409.7
-53360.5
-55846.5
-56312.3
-55258.8
-52820.2
-55939.6
-56609.6
-56453.3
-56312.3
-56383.6
-55649.3
-55142.9
-53629.6
-53691
-55132.8
-55747.2
-55728.2
-55035.6
-54985.3
-54726.4
-53179.4
-53231.2
-53563.7
-53504.2
-53178.7
-52979.1
-53023.6
-52669.2
-52075.8
-51298.7
-50459.3
-49663.6
-49698.8
-50446.5
-51233.2
-51967.1
-52532.2
-52886.3
-54257.5
-54217.4
-54345.7
-53560
-53417.9
-53581.7
-52767.2
-52547.6
-52674.3
-51753.2
-51646.9
-51875.3
-50940.7
-50822
-50868
-50068.6
-50062.4
-50079.3
-49352.7
-49400.3
-49368.5
-49005.5
-48937.1
-48307.8
-47708.2
-47126.5
-46510.9
-47220.6
-47616.4
-47979.6
-48427.8
-48701.6
-48818.3
-48768.3
-49022.2
-49603.3
-50322.7
-51174.2
-52151.6
-53250.7
-54437.5
-55671.4
-56938.9
-58277.5
-59638.4
-60555.9
-60495.8
-60350.2
-59714
-65245.1
-64566.4
-61199.7
-62032.8
-59869.5
-60721
-60548.8
-59030.1
-59569.1
-59740.9
-62412.9
-64007.7
-59884.1
-58206
-56968.3
-55744.1
-54485.9
-53267.7
-52151.2
-51177.1
-50345.4
-49652.2
-49101.7
-48696.8
-48560.1
-48823.5
-49325
-49960.7
-50705.2
-51536.6
-52454.8
-53438.5
-54466.5
-55524.7
-56604.3
-57690
-59023.1
-48326.5
-48168.2
-47825.1
-47936.3
-47878.7
-48271.5
-48295.1
-48762.9
-49347
-50042.2
-50843.5
-51725.1
-52644.2
-53524.2
-54301.5
-54985
-55662.5
-55748.3
-54988.7
-54759.8
-53127.5
-52844.8
-54298.7
-54225.7
-53426.9
-53632.9
-52497.6
-52629.6
-52038.6
-51261.7
-50419.6
-49621.5
-49673.5
-50424.2
-51211.3
-51940
-52809.9
-52552.4
-51649.4
-51905
-50956
-50816.8
-50058.8
-50090.6
-49370.7
-48996.4
-48905.4
-48275.3
-47689.1
-47102.2
-46458.5
-47195.5
-47609
-47972.1
-48427.5
-48740.3
-48840.7
-49390.2
-49991.7
-50704.4
-51541.1
-52477.3
-53481.3
-54517.4
-55567.9
-56634.6
-57707.8
-58228.1
-58108.6
-56898.2
-56910.7
-55661.6
-55699.6
-54459
-54438.9
-53254.2
-53248.8
-52137.5
-52151.2
-51170.8
-51157.2
-50332.1
-50317.8
-49610.2
-49640.8
-49102.4
-49031.6
-49368.8
-48875.4
-48578.8
-48685.9
-48424.6
-48411.2
-48226.8
-48423.8
-48186.4
-47605.5
-47704.5
-47470.5
-48040.2
-48265.4
-47486.9
-47865.2
-47980.9
-48359.3
-48222.1
-47861.4
-47754.7
-47633.4
-48067.5
-48260.4
-48471.7
-48200.7
-48274.7
-69157.2
-66875.3
-48826.7
-38497.2
-33720.6
-36255.9
-37756.6
-33414.2
-29434.8
-20064.4
-20372.2
-19072.8
-16089.6
-29953.2
-29893.3
-29353.9
-33117.2
-37686.3
-38232.4
-39630.8
-39887.5
-39688.5
-39491.2
-49242.7
-45445.1
-52542.6
-52113.6
-52814.4
-54419.3
-48132.7
-51673.9
-51785.6
-55323.9
-55228.3
-58386.7
-54421
-53438.8
-56474.8
-48194.2
-51675.4
-38278.6
-32463
-36093.8
-34468
-31367.1
-36051.3
-37544.3
-38233.4
-51589.9
-46359.9
-47326.5
-40535.6
-32639.7
-31003.1
-35197.6
-32303.4
-31985
-22444.1
-33668.5
-36237.2
-28151.5
-34749
-40120.7
-43264.8
-44830.8
-46280.9
-41399.8
-40396.5
-39489.7
-38531.6
-37722.7
-37050.7
-36488.9
-36044.5
-35690
-35416.6
-35215.9
-35088.8
-35038.8
-35056.1
-35140.5
-35304.4
-35568.7
-35924.1
-36293.8
-36679.7
-37311.5
-38336.1
-39453.3
-40742.8
-41246.9
-43661.2
-47508.8
-49207.6
-46787
-40735.4
-29451.3
-10754.5
-4906.17
11698.4
18751.7
23035
19888.8
24761.9
16079
26580.4
33421.9
35170.5
34243.4
33126.2
31837
30524.7
30585.8
30594.7
30650.5
29437.3
29482.5
28170.5
28212
26917.4
25699
25673
25508.7
24119.1
24106.5
24086.3
24059.2
23899.1
23864.3
24714.9
25439.4
25216.3
23864.9
23823.6
23738.3
24607.7
25338.3
26560.3
26506.7
26676.1
27960.5
27809.8
27846.5
27651
26364.1
25062.8
23746.3
22421.4
22511.5
22329.1
23740.1
23590.3
23464.3
23341
23363
24594.3
25892
25669.9
26433.7
27255.3
28534.7
29869.9
31193.8
32521.7
33778.1
34968.7
36078.6
37115.3
37982.8
39235.9
39547.9
40409
40746.2
40759.8
39918.4
40313.8
39906.7
38969.9
38306.7
37883
37149.3
37372.8
37455.8
37345.3
37575.9
38089.2
38223.1
37127.8
35806.3
34500.4
33168.3
31412.5
28857.3
26410.1
23961.8
20261.5
18926.6
18364.2
17178.6
15890.3
328.206
653.31
713.331
1234.32
2011.43
2945.09
3986.89
5081.21
5211.33
6416.59
7644.24
8856.34
10102.6
11355.8
12617.4
13736.2
13773.3
12597
11328.7
10089.2
8855.48
7630.17
6417.21
5229.2
4064.65
4057.8
3100.92
3066.01
2952.18
2011.01
1256.1
727.207
389.297
391.229
349.418
40771.1
40295.8
40189.6
40282.3
33184.3
29768.3
32656.1
36037.7
33086.6
32416.5
33445.1
33059.6
29893.3
30669.8
28425.1
28816.5
31700.7
33413.6
33403
35734.7
35092.5
29129.5
31456.7
36161.8
36762.9
35698.1
33482.7
36382
34470.5
36526.4
37095.8
37717.8
36887.7
35792.4
29038
33200.6
34921.9
35629.4
35518.2
35235.8
33809.7
35708.4
35932.4
36333.7
36043.9
36592.6
36374
36730.3
37474.9
37172.6
36029.1
34986.8
33964.2
32634.8
31350.1
30102.3
28785.3
27530.8
26206.3
24965.1
23641.9
22421.3
21110.1
19897.4
18601.1
904.891