/*--------------------------------*- C++ -*----------------------------------*\
  =========                 |
  \\      /  F ield         | OpenFOAM: The Open Source CFD Toolbox
   \\    /   O peration     | Website:  https://openfoam.org
    \\  /    A nd           | Version:  7
     \\/     M anipulation  |
\*---------------------------------------------------------------------------*/
FoamFile
{
    version     2.0;
    format      ascii;
    class       volScalarField;
    location    "18.9";
    object      p_rgh;
}
// * * * * * * * * * * * * * * * * * * * * * * * * * * * * * * * * * * * * * //

dimensions      [1 -1 -2 0 0 0 0];

internalField   nonuniform List<scalar> 
15010
(
54267.6
52974.4
53201.3
51334.7
50535
50496.9
49809.3
49779.6
49641.7
49715.9
49794
49847.2
50533.7
50570.9
51365.4
53219.4
53003.7
54146.8
52782.1
52790.5
52899.2
53120.7
53047.7
52359.9
51561.1
51366.5
50822.1
50805.6
50800.8
50842.7
50826.7
50872.5
51415.3
51603.9
52388.2
53064.9
53138.7
52867.4
53457
53473.3
53489.2
53342.6
53053.4
52385.4
52174.6
51697.2
51715.5
51772.4
51797.6
51733.1
51747
52228.7
52429.1
53089.4
53372.7
53504.8
53991.9
54100.4
54109.9
53984.8
53776.4
53598
53058.4
52875.8
52470.3
52508.1
52602.2
52623.3
52518.2
52498.4
52910.7
53089.2
53625.7
53805
54198
54421.8
54572.3
54585.1
54407.1
54190.7
54068.6
53624.4
53465.5
53138.1
53186.3
53292.6
53306.6
53177.9
53142.6
53484.7
53635.6
54083
54538.1
54639.7
54852.1
55043.3
55063.8
54856.3
54641.7
54554.7
54158.2
53959.7
53662.1
53709.8
53818.5
53828.9
53698.9
53663.8
53969.9
54155.5
54559
54935.2
55045.7
55262
55502.1
55524
55268.7
55053
54948.1
54576.4
54329.3
54045.7
54079.4
54178.4
54186.8
54070.5
54044.7
54335.1
54580.1
54911.6
55299.8
55465.2
55683.7
55977.9
56004.9
55690.8
55471.1
55307.4
54915.7
54576.2
54282.7
54289.9
54362.6
54373.2
54292.9
54292.1
54386.5
54731.2
55218.6
55716.9
56015
56291.2
56728.4
56758.6
56295.4
56015
55723.3
55219.9
54711.3
54372.5
54340
54370.1
54381.3
54354.3
54245.3
54335.9
54789.4
55579
56327
56862.8
57247.8
57961.1
58007.1
57262.7
56875.6
56343
55581.3
54766.1
54315.4
54226
54198.8
54207.4
53898.8
53982.6
54134.1
54807.3
56043.9
57217.6
58164.1
58556
59628.7
59689.8
58583.8
58206.3
57257
56057.9
54788.8
54114.5
53954
53897.2
53498.3
53480.1
53620.7
53798.7
54689.2
56483.3
58260.7
59925.1
60433
61706
61784.1
60496.1
59999.8
58333.8
56515.9
54694.4
53771.2
53573.7
53386.5
52566.1
52565.6
53390.6
53384.6
54317.9
56835.1
59102.8
61498.2
62963.5
65136.5
65236.2
63050.3
61582.8
59183.1
56882.6
54330.8
53366.4
52921.7
53514.6
49849.3
49877.3
53410.3
52900.5
53579.3
57235
59822.7
62299
65775.1
70231.9
70348.3
65871.7
62363.5
59902.2
57285.6
53586.4
54410.2
50436.2
45423.4
51808.3
54164.1
54257.1
49107.7
44522.8
45933
48426.1
48513.4
45565.7
51800.4
50491.1
54390.8
58433.9
61925.9
65717
67077.6
67172.8
65843
62054.3
58520.5
60588.1
55424.7
57127.6
48842.8
41513
44642.5
44798.4
46064
44666.6
49182.6
55376.3
60482.6
65248.2
69196.9
69356.5
69523
69380.6
65410.5
69980.1
63196.2
68876.5
61054.7
50682.1
41759.5
37542.4
27249.1
41342.7
41521.8
37803.6
41954.3
41737.7
48905.9
57088.9
63098.6
69758.3
73982.2
72157.7
72210.5
74094.8
73859.4
73510.3
79234.9
74462.1
66679.1
55405.7
45885
39982.3
30587.8
30727
27503.7
49441.4
52764.3
40142.7
46040.9
55446.8
50776.8
60985.9
68712.2
73392.9
76307.3
73729.8
64507.2
62161.1
65773.4
70270.2
74283.7
79104.3
81425.8
87697
87672.3
81620.1
83396.7
87365.5
88248.8
82130.3
75231.6
64933.1
54985.5
44361.4
43620.1
63448.2
69814.7
67278.5
63154.7
61240.9
62087.3
62603.6
64410.3
68714.7
78289.8
88946.5
94114.9
95189
96249
90164.3
87048.9
84773.8
85840.5
83284.2
81471.2
79630.5
78164.9
76410.7
74758.5
73473.4
72343.3
71304.1
70314.5
69371.6
68370.4
67310.8
66193
65013.1
63752.2
62404
60961.8
59423.1
57773.6
55990.5
54039.3
51891.5
49453.5
46594.8
42976.5
37750.8
28935.6
17279.6
9925.71
11131.2
15557.1
-14648.6
56391.3
83086.9
95930.7
93365.1
103671
111610
111013
108371
108711
94605.9
87795.7
88841.8
103357
108696
108481
109160
109491
108761
109225
101682
111136
100035
100659
100097
98299.1
90913.3
95334.5
96210.3
88109.8
89943.4
80519.7
81419.3
50585.3
24751.6
15223.3
23630.6
16968.1
13595.7
22034.8
32976.9
40464.5
44771.1
47787.4
50409.5
52672.7
54705.2
56528.1
58246.5
59852.6
61363.1
62784.1
64117.9
65362.5
66528.1
67628.7
68670.2
69652.8
70581.9
71495.2
72463.5
73532.4
74822.7
76099.4
77220.7
78273.6
79950.8
82805.1
79752
82557.7
86482.2
91031.3
86337.8
75565.6
66487.1
46515.8
52450.1
42132.1
38441
37938.7
41315.6
44589.9
40941
26386.2
32392.8
32342.8
41201.2
44522.4
43823.4
54627.8
64835
75079.5
66602.6
66388.6
72713.7
79475.9
85563
91158.9
92280.5
87515.4
81875.7
88003.2
87435.2
96692.9
96497.6
92586.9
91401.5
85816.8
77278.9
88083.8
80873.1
75694.8
72512.6
71636.9
74403.8
78598.1
84612.7
92743.5
98380.5
99050
99737.4
101358
98043.7
100027
93020.7
91157.4
92133.9
87804.7
84717.1
83897.5
81191
79717.7
80502.7
76821.6
76176.6
75088.9
73979.4
72916.2
71894.1
70930.8
69969.7
68976.1
67949.9
66871.9
65744.2
64553.9
63285.8
61919.5
60450.9
58871.5
57153.1
55258.8
53162.4
50812.4
48033.2
44081.6
37808.9
28254.8
16249.7
16685.2
18627.1
13112
16981.8
27431.9
38030.9
43806.4
47716.7
50614
53026.2
55155.3
57070.6
58798.2
60388.7
61873.7
63266.3
64559
65766.7
66900.5
67975
69004.1
69989.9
70949.6
71941.1
73030.1
74186.3
75369.3
76663.4
78305
76758.3
76620.1
81428.1
77049
76248.5
75132.5
73976.7
72865.2
71827.5
70872.3
69923.7
68936
67919.3
66845.4
65725.5
64534.9
63266.7
61904.1
60431.8
58843.3
57109.8
55195.3
53057.5
50637.4
47754.8
43883.2
37561.8
27818.2
15667.1
15421.1
16288.5
18282.1
21386.3
-7196.63
27277.1
18018.6
57778.8
88013.2
96047.2
85026.4
97048.6
107088
107081
108598
112070
111723
108895
109065
99884.3
88004.4
96005.3
106134
109378
110833
111450
111493
111189
110438
111676
112338
112126
112483
111955
111763
111677
111779
111613
110779
110122
111597
111311
111931
111871
111900
111931
111868
111766
111693
111583
111541
111302
111363
111193
110076
108573
108681
101310
101699
98377.6
77009.8
63776.5
91296.7
81738.6
98547
101086
100000
95252.1
89498.4
98395.2
71510.7
64170.6
54615
41078.4
35414
55126.1
55512.1
68947
73705.8
83300.1
57313.3
30531.5
14105.7
11542.5
19726.5
31182.1
37421.7
42018.1
45007.2
47453.6
49878.9
52282.2
54523.1
56540.8
58357.4
60022.1
61568.8
63003.2
64344.9
65607.7
66800.4
67928.6
68995.1
70006.3
70965.8
71915.1
72875.3
73846.7
74807.4
75691.2
76688.4
78083.7
80295.3
81636
87285.9
89019.5
84027.2
83672.6
93286.6
88765.1
85398.2
84513.6
81515.3
79852
79526.9
78602.1
76422.8
74663.1
73356.2
72226.5
71192.5
70232.2
69247.5
68210.6
67128.6
65982.4
64777.2
63520.3
62198.1
60764.9
59214.1
57536.2
55714.1
53732.8
51568.1
49150.9
46347.1
42866.9
38010.3
29191.4
16664
9449.03
7205.76
12696
-20684.7
54624.3
84129.6
96938.1
99884
108967
108832
106096
108653
112159
112525
111933
112069
112063
111991
111923
111878
111810
111732
111636
111537
111420
111448
111471
111373
111344
111274
111143
110591
109723
106232
106662
99881.7
101258
99082.8
102254
100977
87838.2
75975.6
70381.8
60992.4
44708.5
36264.2
29004.8
25190.8
28858.1
36011
41249.6
44468.4
47307.5
49977.7
52261.6
54228
55950.7
57592.2
59166.3
60652.3
62050.6
63375.6
64626.1
65813.2
66939.6
68006
69006.7
69937.4
70808.3
71638.8
72431.6
73188.7
73912.9
74724.2
75451.9
76585.1
70063.2
72787.5
75619.8
79923.3
71241.5
57135.1
58507.5
52726.1
44748.1
39137
44957.4
39513.5
40108.8
36925.5
35035.5
33805.5
33530.8
26328.3
64325.5
63854.7
74744
86374.1
92385.2
103364
108478
107703
105942
105125
105131
106147
105526
105634
110150
104990
107730
102246
104322
105532
99021.8
101354
94060.4
91781.6
90659.3
87515
84706
85882.2
83700.6
81509.5
79956.2
78228.9
77248.4
76004.8
74641.4
73436.4
72459.3
71551.7
70664.7
69739.6
68757.2
67719.1
66618.3
65446.8
64204.1
62893.6
61501.6
60007.3
58409.5
56712.6
54948.2
53003.9
50798.2
48270.3
45511
41708.3
34601.1
23519.1
13755.5
14719.2
25389.2
3786.34
21694.1
44085.7
72465.8
79346
90285.9
103770
108121
110886
111449
109818
111596
111412
111783
111741
111804
112038
111965
111993
111983
111958
111906
111856
111786
111714
111620
111520
111394
111288
111311
111330
111222
111228
111237
111207
111077
110687
109972
106777
104811
106210
108670
110237
110734
110917
111019
110926
110946
111035
110894
110874
110798
110467
109809
106769
99539.1
91240.9
86064.9
72370
59968.3
45376.6
35726.8
31792.1
30891.1
33877.1
39207.7
43418.9
45763.5
48441.1
50810.7
53052.2
54937.6
56554.7
58138.1
59695.3
61169.2
62549.4
63851.3
65078
66237.9
67331.2
68356.3
69306.9
70173
70953.3
71627.5
72199.1
72626.6
72886.3
73199.4
73486.3
70732.4
68975.8
68786.7
66613.3
66776
53929.2
52771
43027.9
42695.1
44414.2
38665.8
39047.2
39416.7
36301.5
34638
37515.2
41131.9
44611.9
63171.1
67214.6
77082.4
87831.3
92948.9
98802.4
99656.5
99602.6
99146.8
93196
97997.2
102530
96923.6
92228.1
89556.4
86892.2
86592.8
87835
90966.8
96197.5
100828
101698
103403
104627
94289.3
94079.3
108927
103202
104677
103572
99581.2
99958.2
95810.8
96590.1
91317.5
86481.5
82214.5
79703.7
76419.5
75263.7
74615.4
73874.2
73175.6
72428.4
71657.6
70848.6
69983.8
69052.8
68050.9
66985.3
65857.3
64661
63404.4
62085.3
60691.1
59192.8
57596.2
55942.8
54231.7
52299.3
50010.4
47438.3
44739.9
42005.4
37251.1
29951.7
24504.2
26559.7
36451.7
44161.3
44103.7
65157.3
73818.3
86803.3
85827
95914.6
88103.1
95858
108411
110120
111317
111561
111407
111526
110898
111726
111883
111977
112014
111958
111938
111931
111967
111915
111913
111865
111818
111763
111699
111609
111503
111365
111239
111184
111212
111219
111141
111120
111099
111079
111075
110996
110780
110424
109946
108985
108400
110264
110627
110607
110827
110898
110964
110911
110980
111000
111036
110946
111083
110844
111128
111162
110892
111000
111095
111283
111219
111207
111246
111230
111241
111231
111235
111229
111219
111202
111189
111157
111115
111051
111039
72231.8
85671.1
95008.5
101575
104426
106653
108828
110146
110886
111173
111429
111617
111728
111796
111828
111850
111852
111886
111906
111928
111949
111969
111983
112000
112018
112043
112068
112088
112099
112096
112119
112125
112121
112113
112101
112086
112072
112047
112041
112056
112072
112085
112092
112097
112052
112065
112068
112062
112021
112017
111970
111987
111959
111945
111895
111898
111863
111881
111853
111806
111796
111703
111542
111268
110786
109945
108480
105994
101719
101579
94799.9
85459.8
73083.6
71694.5
84723.1
94717.8
94439.7
98645.1
101961
105955
108487
109961
110795
111254
111442
111607
111737
111816
111834
111835
111823
111826
111894
111938
111956
111940
111938
111975
112003
111985
111995
112004
112010
112017
112001
111973
111950
111929
111893
111921
111968
111989
111971
111959
111930
111942
111976
111946
111930
111930
111918
111902
111867
111795
111784
111805
111792
111695
111528
111236
110736
109897
108461
106059
101798
94658.5
94443.8
84772.8
84741
72074.5
46536.2
56869.8
70865.1
84355.3
84740.6
94442.2
101282
104213
106352
108622
110004
110788
111114
111375
111580
111704
111747
111795
111845
111867
111888
111903
111901
111917
111929
111928
111939
111951
111942
111926
111907
111877
111887
111903
111920
111930
111893
111903
111904
111866
111872
111873
111828
111829
111759
111650
111662
111491
111202
110677
109771
108220
105633
101273
101302
94394.3
85295.3
78746.8
86392.4
95025.7
94784.8
101893
106111
108549
109880
110701
111185
111478
111550
111683
111771
111768
111829
111821
111766
111701
111750
111769
111751
111789
111812
111804
111770
111755
111764
111693
111675
111698
111602
111598
111666
111696
111593
111524
111316
111344
111017
110608
110989
110662
111149
111432
111433
111150
110669
109860
109795
110061
110142
109008
107729
108912
108313
105765
106041
106009
101819
94840.2
84367
84204.6
70495.2
71888
70885
71458.4
70795.2
70692.7
84533.7
90958.7
96399.4
101896
101851
95583.9
95188.8
95655.5
84374.1
71753.4
96665.8
102809
106372
108537
108757
109979
110717
111167
111439
111344
111551
111588
111426
111162
111021
110496
109686
108452
106494
106662
102832
95839.2
96204.5
102989
102308
106406
108718
110000
110732
110728
111161
111419
111581
111688
111638
111715
111711
111682
111646
111549
111516
111312
110985
110463
109652
110001
108716
106404
102313
95495.4
95476.7
96233.4
103005
106483
108425
108726
109939
110671
111117
111388
111365
111530
111628
111583
111503
111430
111352
111065
111087
110604
109801
108486
106335
106628
102786
95797.3
78480.6
86972.8
96659.5
102785
101888
105723
108247
109714
110583
110894
110513
110035
109981
108840
107657
105997
101821
95563.2
96434.4
90974.3
85329.1
84527.8
84371
94821.7
101773
105939
106027
108444
109763
110577
111055
111340
111509
111610
111673
111706
111680
111633
111578
111534
111504
111338
111052
110531
109635
108100
105534
101204
101837
94754.1
84200.9
70882.2
78744.3
86398.7
94985.6
94345.9
85229.1
84709.6
94402.3
101209
104122
106252
108492
109855
110631
110942
110612
109873
108578
106469
105929
108299
109714
110543
111038
111324
111483
111572
111612
111582
111517
111399
111232
111028
111060
110599
109775
108322
105823
101868
101701
94592.3
84325.3
70881.3
71423.8
53635.7
72323.4
79457.9
86497.1
95426.1
101729
105984
108441
109920
110777
111255
111515
111665
111732
111793
111828
111835
111772
111808
111862
111905
111937
111963
111987
112006
112010
112041
112070
112097
112120
112133
112154
112166
112169
112169
112168
112159
112147
112131
112112
112089
112068
112041
112047
112068
112096
112113
112127
112139
112147
112150
112151
112153
112128
112116
112100
112070
112045
112009
111991
111980
111971
111948
111924
111897
111841
111837
111840
111822
111795
111725
111613
111429
111253
110774
109923
108468
105986
101906
95415
85831.9
72127.4
71584.2
55132
63673.4
73854.9
87001.1
95844.9
101984
106019
108501
109958
110790
111257
111518
111668
111754
111768
111778
111800
111847
111869
111886
111906
111931
111957
111984
112006
112028
112049
112071
112095
112121
112140
112150
112155
112172
112180
112193
112195
112220
112216
112212
112200
112182
112174
112172
112190
112203
112207
112189
112189
112185
112179
112167
112143
112110
112056
112014
111951
111878
111855
111770
111738
111636
111660
111513
111257
110807
110081
108639
106570
102122
96348.9
84492.1
73029.5
38050.4
45223
56016.5
73541.7
86683
95872.4
102054
106030
108503
109954
110782
111241
111497
111639
111722
111762
111798
111821
111822
111830
111840
111877
111906
111938
111977
112002
112020
112017
112033
112055
112096
112120
112144
112158
112163
112183
112186
112196
112210
112208
112235
112218
112218
112205
112184
112186
112189
112207
112221
112224
112207
112189
112163
112128
112030
111901
111750
111538
111170
110187
110105
107375
99717.5
80334
9986.11
16542
23998.9
35493.8
53932.4
63891.2
75809.9
87374.7
95924.3
101902
105912
108412
109881
110709
111167
111420
111565
111648
111683
111719
111740
111753
111728
111761
111789
111821
111837
111865
111895
111931
111968
111996
112014
112032
112048
112065
112089
112106
112122
112128
112133
112145
112141
112139
112150
112120
112102
112079
112047
112012
112007
111994
111974
111986
111997
111996
111988
112001
112031
112033
112048
112034
112117
112104
112042
112073
112088
112079
112171
112099
112132
112142
112165
112175
112173
112169
112140
112179
112195
112193
112197
112193
112169
112169
112169
112171
112179
112178
112167
112152
112144
112139
112150
112150
112137
112122
112115
112098
112072
112061
112041
112031
112048
112029
112018
112015
112011
111992
111963
111959
111914
111889
111929
111954
111986
112002
111999
112019
112025
112037
112067
112100
112128
112143
112166
112174
112175
112198
112197
112202
112209
112197
112223
112179
112182
112168
112142
112168
112173
112194
112209
112210
112179
112180
112163
112143
112092
112102
112049
111929
111788
111592
111243
111513
111127
110097
107137
99531.4
80136.1
29572.9
39630.4
56946.6
73345.4
86333.8
95634.7
101947
106024
108523
109975
110788
111235
111481
111622
111709
111762
111779
111799
111811
111837
111849
111855
111880
111907
111944
111978
112001
111975
111939
111899
111864
111816
111766
111679
111563
111353
110974
111104
110566
109771
108161
106109
101594
96260.8
85498
73115.8
55666
36742
44924.7
57175.2
74167.4
87218.3
96064.4
102053
105977
108438
109890
110722
111187
111448
111595
111680
111714
111741
111714
111714
111747
111806
111833
111850
111861
111859
111846
111822
111793
111750
111709
111649
111506
111522
111344
111042
110491
109692
108083
106033
101544
96283.1
85591.6
73407.1
56112.2
37696.3
35146.8
55037.8
56454.1
74696.1
87381.5
96108
102101
106038
108488
109923
110739
111192
111445
111587
111671
111678
111597
111460
111211
110776
109973
108595
106215
102384
96113.7
86942
74027.3
56896.2
56235.9
37129.6
17252.4
25793.4
38039
54566.5
72631.6
80547.7
88296.4
96072.3
101954
105961
108441
109887
110700
111146
111389
111524
111574
111633
111663
111688
111727
111752
111765
111785
111775
111763
111781
111826
111867
111918
111951
111978
111998
112013
112029
112043
112063
112080
112087
112092
112091
112094
112100
112092
112086
112075
112062
111995
111949
111898
111845
111868
111858
111813
111845
111876
111899
111949
111971
111939
111904
111855
111860
111873
111893
111961
112014
112071
112006
112045
112094
112073
112021
112019
111944
111861
111760
111638
111461
111120
110192
107444
99179.6
80111.1
44270.8
56755.7
74195.6
86999.1
95713.7
101909
104681
106913
108888
110102
110781
111010
111260
111431
111528
111571
111582
111609
111655
111688
111707
111746
111769
111779
111784
111800
111821
111856
111881
111922
111945
111970
111985
112004
112022
112035
112043
112049
112047
112056
112052
112041
112046
112032
111997
111964
111906
111873
111781
111736
111696
111825
111820
111670
111680
111699
111786
111813
111704
111609
111666
111677
111641
111755
111886
111723
111781
111944
112024
112088
112043
111979
111973
111915
111865
111812
111788
111764
111714
111658
111587
111504
111393
111221
110988
110526
109865
108440
106347
101960
95991.7
84848.8
73148
73821.4
86380.8
95508.1
99466
102693
106251
108556
109910
110668
111072
111213
111367
111473
111540
111582
111607
111635
111648
111632
111603
111635
111692
111734
111754
111760
111787
111812
111847
111876
111900
111917
111927
111936
111944
111949
111952
111962
111947
111939
111929
111924
111906
111872
111863
111799
111775
111612
111660
111531
111592
111708
112164
112185
111771
111611
111520
111583
111521
111693
111505
111642
111631
111630
111740
112052
112048
111736
111670
111697
111588
111802
111777
111675
111515
111565
111886
112010
112003
112007
111922
111877
111869
111830
111795
111748
111690
111640
111601
111588
111545
111480
111390
111241
111017
110568
109873
108411
106136
101534
95348.7
84186.6
73364.6
14539.7
25099.4
36659.1
53525.8
73182.3
74900.1
87777.2
96176.1
102094
106057
108502
109926
110727
111172
111418
111558
111639
111643
111561
111423
111184
110744
109976
108553
106267
102250
96496.5
87561.5
74983.9
73120.1
55224.8
37477.8
24083.7
14284.2
73287.1
80517.8
87559.1
95648.3
101699
104394
106761
108750
110003
110701
110924
111184
111347
111435
111488
111520
111530
111559
111570
111583
111618
111635
111635
111667
111686
111691
111710
111730
111760
111788
111812
111827
111834
111839
111845
111851
111860
111851
111852
111856
111832
111815
111760
111767
111760
111629
111659
111652
111396
111484
111484
111411
111311
111331
111673
112760
112905
112099
111781
111649
112032
112259
112932
112824
111905
111783
111675
111982
112748
112805
112215
111900
111730
111413
111607
111596
111841
112440
112404
111723
111494
111587
111513
111259
111597
111704
111617
111607
111610
111410
111592
111796
111931
111909
111946
111902
111890
111848
111802
111736
111688
111657
111649
111628
111575
111501
111389
111226
110966
110525
109766
108385
106030
101810
95335.4
85147.1
72450.1
92723.4
96695.8
102154
105996
107638
109010
110098
110470
110893
111165
111309
111382
111415
111430
111426
111419
111452
111481
111505
111529
111544
111562
111585
111603
111627
111641
111648
111663
111666
111682
111684
111689
111686
111691
111688
111697
111702
111694
111687
111658
111657
111646
111613
111609
111502
111485
111464
111122
111337
111102
111173
111014
110892
110179
107364
106919
106957
109526
108205
107394
104569
102973
91417.1
81783.9
69017.2
56586.4
44328.7
38876
39058.8
41658
44235.1
46267.3
48392
50399.8
52642.2
54507.2
56045.2
57616.4
59158.9
60617.7
61992.2
63302.1
64555.8
65748.7
66878.8
67934.7
68909.2
69784.7
70544.2
71128.8
71564.4
71727.9
71468.3
70973
69974
68002.9
68773.9
61497.8
63459
59322.1
58069.1
52543.3
52381.7
52602.4
52540.1
57990.7
46120.5
44747.6
52003.8
41849.8
38294.9
62165.6
61712.3
61265.5
72131.4
75400.5
80605.6
92013
96681.6
102300
101884
101769
101759
105457
102892
101727
97829.7
96402.6
96182.9
96986.1
99243.7
102106
103780
105484
106757
96054.7
95972.6
111287
105903
106808
105604
102147
101021
92817.1
77957.4
65944.7
75170.7
70810.3
66395.9
66335.9
68500.2
69179
68015.5
70055.3
71338
71792.4
71746.2
71373.8
70810.5
70066.7
69202.3
68242.8
67210.8
66105.5
64934
63700.3
62417.7
61068.4
59651
58168.3
56704.4
55244.6
53389.2
51053.9
49056.9
47460.1
45415.9
43525
41814
42887
50207.1
60413.7
70363.3
82421.9
93057
98878.7
109251
108673
109083
107358
105575
98913.9
90587.4
81625.3
69822.4
57826
47956.5
41639
41157.1
42878.4
45062.2
47229.2
49061
50893
53166.7
55054.8
56572.2
58072.1
59560.8
60985.6
62337.1
63621.6
64852.6
66027.1
67142.1
68183.9
69145
70008.7
70753.3
71314.7
71709.5
71779.9
71287
71385.6
70656.3
70591.4
68707.2
61212.5
57916.9
59204
53465.8
56553.3
74538.7
77258.6
83711.5
88949.6
98564.5
88754.4
86840.5
91179.3
89299.9
96411.4
84460.8
68239.4
63953.9
78329.9
74150.6
71408.9
86382.5
86732.7
89400.8
97759.9
101671
102519
98453.9
100319
101930
105951
103712
103328
102943
102986
102611
101863
102262
104207
107974
92961.6
95097.6
94967.4
105979
108007
104233
102474
99424.7
90903.4
87623.6
96909.1
95997.7
96259.7
102609
101863
102151
104168
105808
104929
104973
105940
108600
108237
109449
112744
105847
96955.3
96624.8
97396.7
97676.1
92640.9
87832
89341.3
102883
85134.7
86327.7
88177.1
90850
84244.4
82341.7
85034.8
97829.4
99714.9
99711.8
86820.5
86729.3
80392.5
82473.5
95022.5
94905.6
82320.4
77084.6
77108.5
76011.9
73420.2
65872.9
75148
75137.9
67762.6
61206.3
58951.3
66383.2
71715.9
74204.1
83457.7
69943.8
79303.6
79301.8
76419.4
69922.3
74161.9
71767.6
70269.7
76033
87753
72728.6
79621.1
85343
82603.7
88484.9
100350
98692.9
86700.3
88677.7
92449.5
92480.4
88641.4
79285.6
77937.7
74120.8
70790.7
85025.7
86504.1
87729.1
92820.3
85107.7
84907.6
71441.8
70663.2
68959.5
74575.6
69160.5
67908
69854.9
68161.7
59623.3
63928.4
59584.7
68126
79294.3
84278.2
90875.9
75178.3
80453.7
73498.5
65859.3
67691.9
75165.2
61176.4
58971.8
66435.8
66377.2
61257.2
61152.8
61100.4
61310.5
57290.4
53967
52111.5
55283.1
57587.1
57661.5
63145.8
67131.9
67205.4
65740.1
62117.2
63217.1
65871.9
65836
62743.1
60954.7
59873.6
60259.6
55761.6
55516.5
54211.2
52056.5
52390.1
54133.9
54425.2
58334.7
59009.3
60414
58409
57328.9
57319.1
58039.9
59211.2
59795.1
66087.9
66110.6
59835.1
59270.3
60483
62820.6
60338.3
59851.6
60889.9
64484.2
58953.2
58323.6
58481.1
57395
57326.4
58022.8
57329.6
58821.2
58766.4
57347
56758.7
56778.1
56270.1
56312.7
56559.4
58100.7
58000
58786.8
58839.9
58045.7
57082.3
57044.8
56210.7
55599.2
55163.5
54788.1
54371.8
54333.9
54801.2
55231.1
55712.4
56357.5
57204.7
55829.6
55875.5
55757.2
55335.8
55466
55299.8
54903.8
55124
55009
54714.8
54808.8
54579.7
54297.7
54416.7
54382.4
53964.7
53959.1
53942.4
53456.9
53404.9
53448.7
53815.7
53894.7
53336.3
52772.3
52230.3
51800.9
50818.8
51628.3
52447.7
53191.4
52899.1
52772.7
52835.7
52581.9
53216.8
53714
54079.5
54317.9
54432.6
54455.9
54426.9
54358.7
54218.4
54057.9
54356.1
54410.1
55828.1
57698.9
52112
53991.3
57319.5
55314.7
57517.5
55451.1
54389.5
54672.1
54117.8
53942.9
52497.1
52118.8
53808.3
54266.2
54313
54346.9
54407.4
54419.4
54323.8
54082.6
53696.6
53171.3
52504.7
51693.9
51829.7
51550.4
52262.7
52842.7
53315.6
53702.5
54001.6
54232.3
54415.1
54562.2
54682.2
54794.6
54687.6
52051.6
52230
51373.8
51227.3
51307
52123.3
52088.9
52831.1
53459.9
53980.1
54396.1
54732.1
55029.5
55362.6
55794.1
56313.2
56836.7
56747.7
56299.6
56516.7
58145.4
57238.9
55778.6
55856.5
55446.3
55238.3
56384.3
56242.4
55630
55194.6
54821.9
54407.9
54351.2
54815.9
55245.5
55731.6
54849.6
55107.8
54794.8
54537.9
54269.9
54409.4
53950.1
53918.9
53426.6
53817.1
53919.9
53360.8
52782.4
52245.7
51845.5
50834.5
51626.2
52445.4
53182.7
52848.7
52738.6
53402.6
52799.8
53304
53684.7
53965.5
54176.6
54351.6
54507.4
54640.8
54767
54257.5
54351.9
54370.1
54376
54426.1
54377.3
54419.7
54443.9
54418.7
54424.4
54324.8
54307.7
54072.1
54089.9
53697.8
53708
53199.1
53170.9
52492.1
52561.7
52206.5
51486.7
51800.3
51693.9
50741.4
50765.6
50950.8
50736.6
49757.7
50336.1
50285.5
50497.3
49921.5
49691.4
50471.5
51308.7
51171.3
52007.1
52165
51326.4
50225.5
50296
49880.8
50905.2
50678
49734.3
49671.2
49472.4
52836.8
74798.3
86478.1
92506.8
89855.1
88347.9
92806
97785.7
108074
107768
109047
111995
97222.5
97276.9
97832
93043
88392.8
86669.5
85274
85035.4
85227.3
85458.5
74396.1
78169.2
71126.7
71531.9
70853.2
69271.4
74471
70800.3
70694
67007.4
67097.7
63830.8
67909.4
69045.6
64518.1
74272.3
71986.3
86621
93687.4
89978.2
91606
94817
88847.6
87354.8
86665.9
72099.2
77295.7
76299
83076
92303.8
93990.8
88471.1
91400.6
91567.7
101477
88672.1
86020.8
94187.4
86336.6
79652.7
75252.6
72461.7
69780
73437
73196.7
72905.3
72664.8
72267.8
71727.7
71072.4
70296.4
69428.1
68477.7
67454
66356.8
65183.8
63945.6
62644.2
61269.6
59802.6
58253
56695.7
55123
53295.4
51053.1
48681.8
46092.3
44238.2
40444.1
35215.2
32163.5
33283.3
38091.8
48184.4
65699.6
70385.5
86072.5
92658.6
96377
93990
98777.9
90996.7
101927
109460
111321
111301
111512
111589
111638
111712
111747
111801
111879
111925
111887
111929
111908
111889
111900
111879
111826
111868
111867
111811
111759
111713
111737
111781
111721
111691
111656
111585
111622
111678
111696
111757
111817
111841
111773
111712
111641
111630
111611
111582
111546
111543
111432
111480
111350
111212
111133
111102
111136
111137
111082
111043
111054
111027
111016
110949
110960
110919
110832
110662
110555
110468
110976
110717
110893
110885
110877
110814
110887
111011
110920
111001
110994
110996
111088
111081
111112
111274
111127
111072
111068
111111
111152
111141
111264
111258
111247
111218
111194
111181
111165
111126
111135
22856.2
36471.2
35937.7
55130.2
73328.4
86990.3
95912.7
102109
102091
106225
108575
109959
110731
111157
111381
111505
111533
111403
111160
110712
109893
108455
105982
102035
96188.8
95937.4
87371.5
87524.7
86718.3
73249.8
55674.8
37214.3
23420.3
24503.4
23549.6
111152
111096
111522
112175
105273
102353
105780
108976
106035
105106
106468
106144
103339
104103
101767
102187
104791
106347
106201
107939
107715
102107
104118
108611
108884
108036
106002
108624
107030
108870
109112
109457
109167
108512
102213
107143
109813
110454
111366
111038
109098
110949
110890
111413
111560
111750
111538
111490
111146
110819
111227
111355
111541
111556
111636
111623
111636
111608
111610
111591
111574
111545
111517
111483
111452
44824.2
57120
74146.1
87144.5
95913
101850
105737
108169
109599
110414
110868
111119
111259
111335
111357
111309
111240
111107
110866
110425
109625
108212
105793
101897
95957.6
87297.2
74665.6
56391.3
54988.1
109447
110722
104385
109719
111505
111098
111341
111374
111360
111512
111541
111540
111521
111621
111701
111794
111761
111831
111814
111869
111852
111784
111803
111833
111844
111813
111795
111821
111816
111761
111710
111670
111609
111533
111456
111352
111248
111329
111232
111135
111084
111088
111057
111035
110957
110928
110902
110892
110852
110815
110831
110841
110609
110557
110868
110709
110825
110744
110821
110779
110752
110771
110784
110836
110892
110864
110847
110920
110964
111068
111092
111096
111044
110984
29535.2
39646.5
56894
73266.3
86246.5
95503
101757
105787
108259
109697
110501
110943
111185
111320
111389
111361
111355
111395
111369
111289
111149
110900
110449
109639
108212
105784
101842
95703.5
86502.6
73353.6
56453.8
38344.2
37850.9
72008.6
84659.9
94342.8
98547.3
94373.9
84724.7
72574.9
71487.5
111423
111420
111505
111590
111678
111665
111748
111723
111797
111850
111804
111770
111751
111701
111753
111792
111758
111786
111777
111778
111764
111702
111662
111627
111561
111524
111402
111244
111098
111152
111230
111196
111061
110867
110791
110740
110693
110828
110747
110744
110798
110723
110660
110734
110663
110709
110672
110658
110674
110704
110745
110778
110856
110933
110961
110964
110964
111026
111063
111126
111217
111129
111050
111063
111094
111103
111092
111108
110965
110968
110983
110922
110926
110935
110956
110574
110542
110486
110394
110273
110239
110216
110146
110088
110193
110255
110301
110375
110406
110472
110556
110610
110652
110687
110704
110661
110690
110735
110720
110720
110697
110755
110732
110710
110696
110599
110585
110544
110543
110541
110526
110538
110566
110616
110659
110701
110733
110748
110765
110835
110906
110918
110926
110998
111060
111122
111063
110987
110999
111009
111025
111020
111074
111077
111053
110971
110814
109974
103241
66102.5
63818.1
75740.2
87239.2
95758.5
101707
105678
108142
109586
110396
110843
111085
111218
111289
111311
111268
111200
111076
110844
110415
109630
108230
105818
101896
96014.5
87652
74799.6
73117.3
72540.3
80441.4
88176.7
95930.3
101773
105733
108176
109597
110394
110826
111056
111177
111220
111162
111054
110842
110428
109671
108311
105996
101901
95775.3
87221.8
86891.9
73266.3
74135.6
86900.7
95570.1
101722
104458
106671
108608
109800
110467
110681
110354
109673
108419
106314
105775
101753
95501.2
86545.4
73902.4
111496
111578
111545
111638
111600
111677
111601
111488
111599
111705
111683
111727
111740
111746
111736
111712
111659
111611
111617
111586
111550
111487
111363
111183
111057
111002
111083
111165
110728
110743
110312
110229
110068
110046
110053
110019
109992
110079
110151
110290
110406
110451
110522
110575
110623
110660
110677
110696
110714
110716
110784
110853
110857
110853
110927
111001
111073
111134
111200
111145
111074
110999
110927
110934
110938
110948
110939
110958
110943
110843
110799
110677
110383
110480
110549
110592
110614