/*--------------------------------*- C++ -*----------------------------------*\
  =========                 |
  \\      /  F ield         | OpenFOAM: The Open Source CFD Toolbox
   \\    /   O peration     | Website:  https://openfoam.org
    \\  /    A nd           | Version:  7
     \\/     M anipulation  |
\*---------------------------------------------------------------------------*/
FoamFile
{
    version     2.0;
    format      ascii;
    class       surfaceScalarField;
    location    "18.9";
    object      phi;
}
// * * * * * * * * * * * * * * * * * * * * * * * * * * * * * * * * * * * * * //

dimensions      [0 3 -1 0 0 0 0];

internalField   nonuniform List<scalar> 
42590
(
-0.0617885
0.000139759
-0.0508428
-0.0603474
0.0487938
-0.0108553
-0.0968453
-0.00288311
0.0183562
-0.122303
0.00776289
0.014623
-0.117602
-0.0047355
0.00974909
-0.149387
-0.00410997
0.00480776
-0.108725
2.08502e-05
0.00896243
-0.105912
-0.00213727
0.00573862
-0.0852956
0.00382554
-0.000880549
-0.046015
0.000247585
-0.00672885
-0.0481774
-0.000310178
-0.00962661
-0.0848923
0.00352013
-0.0051384
-0.104773
-0.00248991
-0.00997587
-0.107233
3.93008e-06
-0.0147052
-0.147356
-0.00407701
-0.0183338
-0.116117
-0.00472182
-0.0484612
-0.120925
0.00772932
0.0611166
-0.0108544
-0.0958896
-0.00283423
-0.0504039
-0.059706
-9.55837e-05
-0.0672813
0.00611988
-0.0678923
0.00609935
0.00936705
0.000117869
-0.0801819
0.00280567
0.0221219
-0.106881
-0.00271991
0.0158388
-0.121891
0.00587066
0.0144433
-0.111675
-0.00453035
0.011503
-0.14297
-0.00347501
0.00762649
-0.105642
0.000795475
0.00873498
-0.104317
-0.00270212
0.00355151
-0.0833992
0.0032882
-0.000800513
-0.0429556
0.00129311
-0.00455852
-0.0451131
0.000694078
-0.00945856
-0.0829782
0.0029864
-0.00793892
-0.103238
-0.00305461
-0.0117063
-0.104237
0.000771687
-0.0144964
-0.141123
-0.00344204
-0.0157833
-0.110319
-0.00450997
-0.021998
-0.120539
0.00582881
-0.009404
-0.105852
-0.00263065
-0.0794695
0.00290176
-0.000114328
0.0058235
-0.0856371
0.000458987
0.00577404
-0.0863797
0.000309863
0.0135472
-0.112159
-0.00249375
0.0111957
-0.123197
0.00365877
0.0123511
-0.109552
-0.00327676
0.0117225
-0.139402
-0.00293722
0.00823268
-0.103143
0.000991877
0.00859031
-0.10204
-0.00263404
0.00313139
-0.0812077
0.00326833
-0.000738384
-0.040686
0.00160054
-0.00412582
-0.042724
0.000998724
-0.00931608
-0.0807572
0.00296966
-0.00853826
-0.101023
-0.00299222
-0.0119069
-0.101836
0.00096872
-0.0124199
-0.137697
-0.00291108
-0.0111745
-0.108299
-0.0032645
-0.0134594
-0.12188
0.00362695
-0.11112
-0.00236717
-0.00409593
0.00940011
-0.114053
-0.00237045
-0.000114013
-0.0888416
-0.000775738
0.00404366
-0.0896049
-0.000931132
0.00949187
-0.11508
-0.00252591
0.00835945
-0.124298
0.00223581
0.0103312
-0.108941
-0.00258235
0.0111747
-0.137607
-0.00263716
0.00823093
-0.101295
0.00109644
0.00847338
-0.09984
-0.002442
0.00307406
-0.0791049
0.00329736
-0.000688757
-0.0386627
0.00174002
-0.00403006
-0.0405229
0.00114081
-0.00916682
-0.0786076
0.00298792
-0.00852441
-0.098864
-0.00279981
-0.0113621
-0.100061
0.00106405
-0.0104052
-0.136031
-0.0026213
-0.00835782
-0.107767
-0.00257716
-0.123036
0.00220098
-0.00744702
0.00685649
-0.123777
0.00133217
-0.00329145
-0.115697
-0.00250858
-0.000111429
-0.0905452
-0.00147511
0.00324108
-0.0913216
-0.00163437
0.00753232
-0.116708
-0.00266157
0.00685878
-0.124999
0.00137601
0.00899912
-0.108825
-0.0022542
0.0106118
-0.13667
-0.00254896
0.0080927
-0.0999171
0.00114251
0.00835437
-0.0978617
-0.00223912
0.00310443
-0.0771784
0.00332461
-0.000645091
-0.0367372
0.00182481
-0.0040158
-0.0383835
0.00123234
-0.00901759
-0.0766068
0.00300221
-0.00837394
-0.0969078
-0.00259813
-0.010779
-0.0987528
0.00109835
-0.0090708
-0.13519
-0.00254656
-0.107723
-0.00225456
-0.00606726
0.00825056
-0.107795
-0.00211126
-0.00648704
-0.124176
0.000822552
-0.00291958
-0.116651
-0.00261141
-0.000111218
-0.0914932
-0.00185895
0.00286315
-0.0922771
-0.00201737
0.00657583
-0.117661
-0.00275826
0.00606455
-0.125367
0.000881141
0.00820116
-0.108858
-0.0021026
0.010248
-0.136174
-0.00254097
0.00796712
-0.0987953
0.0011605
0.00822454
-0.0960501
-0.00206783
0.00314984
-0.0754325
0.0033304
-0.000601201
-0.0348751
0.00189009
-0.00401216
-0.0362765
0.00130529
-0.00884426
-0.0747725
0.00299934
-0.00820991
-0.095125
-0.00241517
-0.0103821
-0.0976781
0.00109924
-0.134757
-0.00256024
-0.00774134
0.0100665
-0.134451
-0.00263143
-0.00562038
-0.107851
-0.00206186
-0.00595199
-0.124298
0.000454937
-0.00273356
-0.11716
-0.0027075
-0.000109382
-0.0919965
-0.00211939
0.00267866
-0.0927832
-0.00228033
0.00604162
-0.118169
-0.00285379
0.00563103
-0.125481
0.000526109
0.00770505
-0.108885
-0.00204566
0.00996688
-0.135841
-0.0025933
0.00782896
-0.0978289
0.00117296
0.00807739
-0.0944031
-0.00189393
0.00319193
-0.0738779
0.0033327
-0.000550948
-0.0330887
0.0019578
-0.00399126
-0.0342172
0.00138246
-0.00861584
-0.0731303
0.00298396
-0.00804112
-0.0934587
-0.00223908
-0.0967344
0.00108487
-0.00973976
0.00781873
-0.0958895
0.00107652
-0.00727015
-0.134221
-0.00269689
-0.00525261
-0.10784
-0.00202645
-0.00547293
-0.124129
5.30974e-05
-0.00256969
-0.117258
-0.00280298
-0.000108416
-0.0920956
-0.00236081
0.00252107
-0.0929039
-0.00250741
0.00557562
-0.118285
-0.00293728
0.00526736
-0.125323
0.000151434
0.00726636
-0.108878
-0.00200527
0.00968998
-0.135616
-0.00264725
0.00766109
-0.0969896
0.00119081
0.00786189
-0.0929132
-0.00168917
0.00321342
-0.0725688
0.00334093
-0.00049999
-0.0314313
0.00205714
-0.00395173
-0.0322522
0.00148798
-0.0083211
-0.0717335
0.002974
-0.0919353
-0.00202341
-0.00750946
0.00791887
-0.0906095
-0.00173485
-0.0092788
-0.0951887
0.00106974
-0.00664709
-0.134126
-0.00272535
-0.00471238
-0.107788
-0.00198678
-0.00479754
-0.123685
-0.000358077
-0.0023298
-0.116852
-0.00287317
-0.00010761
-0.0916827
-0.0026343
0.00226993
-0.0924972
-0.00278344
0.00488663
-0.117901
-0.00299971
0.00473587
-0.124889
-0.000281733
0.00666646
-0.108856
-0.00195206
0.00926497
-0.13556
-0.00265326
0.00738775
-0.0963186
0.00120698
0.00753217
-0.0916507
-0.00140595
0.00317347
-0.071579
0.00336972
-0.000450466
-0.0300009
0.00219434
-0.00385457
-0.0304754
0.00162808
-0.0706491
0.00298117
-0.00733257
0.00366082
-0.0699936
0.00301634
-0.00703844
-0.0895857
-0.00131761
-0.008545
-0.094746
0.00106407
-0.00561347
-0.134377
-0.00268011
-0.00371546
-0.107859
-0.00182677
-0.00345433
-0.122943
-0.00100283
-0.00179879
-0.115582
-0.00292574
-0.00011254
-0.0902968
-0.00307198
0.00172338
-0.0911215
-0.00321149
0.00351939
-0.116664
-0.00303304
0.00373432
-0.124183
-0.000920804
0.00564094
-0.108977
-0.00178475
0.00856151
-0.135892
-0.00258829
0.00695261
-0.0959303
0.00122088
0.00701726
-0.0907186
-0.00099643
0.00301996
-0.0710049
0.00342327
-0.000407233
-0.0290652
0.00249159
-0.0291364
0.00191439
-0.00326339
0.000375194
-0.028686
0.00243767
-0.00651399
-0.0698546
0.00311106
-0.00640301
-0.0890058
-0.000691305
-0.00738392
-0.0948257
0.00106034
-0.00379654
-0.135491
-0.00247455
-0.00185458
-0.108363
-0.00143881
-0.000792212
-0.121884
-0.00212181
-0.000634034
-0.112822
-0.00291863
-0.000114777
-0.0869859
-0.00383064
0.000527886
-0.0878027
-0.0039618
0.000798993
-0.113937
-0.00299784
0.00184392
-0.123182
-0.00204633
0.00382319
-0.109569
-0.0013878
0.00742
-0.137127
-0.00236296
0.00634656
-0.0961019
0.00124459
0.00624386
-0.0902371
-0.000379096
0.00263779
-0.0709225
0.0035232
-0.0290779
0.00302497
-0.000361039
-0.00194275
-0.0306948
0.00392039
-0.00255016
-0.0298255
0.0033281
-0.00536693
-0.0703556
0.00331725
-0.00579811
-0.0887762
0.00020089
-0.00590428
-0.0958563
0.00113628
-0.000762038
-0.138647
-0.00198625
0.00167999
-0.110146
-0.000659128
0.00438675
-0.120546
-0.00404554
0.00155333
-0.107305
-0.00268534
-0.000106348
-0.0802746
-0.00505237
-0.00167223
-0.0810622
-0.00517496
-0.00445454
-0.108428
-0.00272712
-0.00173709
-0.121916
-0.00398392
0.00075169
-0.11146
-0.000598568
0.00592593
-0.140453
-0.00184824
0.00575976
-0.0972511
0.00131465
0.00511239
-0.0900956
0.000505236
-0.0714906
0.00373693
7.19293e-05
-0.00337165
-0.0718895
0.00369814
-0.00037806
-0.0359774
0.005732
-0.000724318
-0.0346161
0.00513709
-0.00361325
-0.0707391
0.00327251
-0.00672607
-0.0866385
0.000974387
-0.00438222
-0.0999879
0.00178715
0.00384212
-0.145889
-0.000982972
0.00745943
-0.11466
0.000895717
0.0138738
-0.119824
-0.00713674
0.00562295
-0.0968039
-0.00225059
-8.43083e-05
-0.0674469
-0.00712101
-0.00576379
-0.0681411
-0.00724188
-0.0140495
-0.0978668
-0.00227527
-0.00758735
-0.121271
-0.00710764
-0.00389954
-0.116143
0.000995105
0.00441115
-0.147945
-0.000820103
0.00673102
-0.101539
0.00196757
-0.0879994
0.00126285
0.0014678
-0.0220079
-0.0661396
-0.00131974
-0.0116767
-0.0586083
-0.000135779
-0.000401137
-0.0595666
0.0123128
0.0109141
-0.0574986
0.011567
-0.00167867
-0.0576856
-0.000459181
-0.0217291
-0.0650518
-0.00153641
0.000830388
-0.128419
0.00587074
0.00895879
-0.153675
-0.00034328
0.0121062
-0.119198
0.00138946
0.0399361
-0.137395
-0.0102601
0.00831454
-0.00203319
-0.0631493
-3.72387e-05
-0.00920286
-0.0498925
-0.0084362
-0.05043
-0.00931258
-0.0403997
-0.0638519
-0.00205132
-0.0122795
-0.139152
-0.0102379
-0.00905659
-0.120866
0.00149908
-0.000841381
-0.156017
-0.000143902
-0.130538
0.00614887
-0.0178866
0.0139117
-0.131188
0.00462427
0.000910631
0.0452481
0.0035812
-0.0676267
0.0369647
0.00433531
-0.049178
0.008789
-0.0425322
-0.0640933
0.0216494
0.00782902
-0.00133725
-0.00620627
-0.0731362
0.0189131
-0.00232657
-0.00234678
0.0152094
-0.0818257
0.0034272
-0.0611567
0.0670849
-0.0810792
-0.000320279
0.0177419
-0.000375931
0.0166841
-0.00886013
-0.0650203
0.0160058
0.0362311
-0.000963543
-0.0481897
0.00406291
-0.0444675
-0.042037
0.0175465
-0.0663953
0.00341823
0.0137414
-0.128959
0.00434534
0.0135708
-0.152258
-0.00124669
0.00794839
-0.112925
-0.000651153
-0.00943913
-0.117131
-0.00287612
8.86723e-05
-0.176612
-0.00305084
0.170135
0.00967423
-0.178553
0.171957
-0.00299044
-0.00800366
-0.118745
-0.00272913
-0.0136725
-0.114598
-0.000599023
-0.154707
-0.00106993
-0.0237968
0.0209155
-0.148922
-0.00290368
-0.14101
0.00123461
-0.0217227
0.0321598
-0.150329
-0.00111847
-0.00886583
-0.0943033
-0.000379224
0.00454549
-0.081906
0.00733833
-0.000176657
-0.0898728
0.0135179
0.0789025
-0.0877328
-0.00455326
0.0132068
-0.0035803
0.0171439
0.00225048
-0.0599632
0.00594327
0.0149786
-0.0803263
0.00120357
0.0235576
-0.138556
0.00101828
0.0207814
-0.146444
-0.00303763
0.00777409
-0.0970138
-0.00290355
-0.000719576
-0.0989535
-0.00968392
0.000196449
-0.159907
-0.0176202
0.00102055
-0.161765
-0.017612
-0.00773527
-0.100391
-0.00959893
-0.0985103
-0.00290788
-0.0384877
0.00678584
-0.0613445
-0.00546416
-0.150919
-0.00433052
-0.0363207
0.0047785
-0.117346
-0.00203077
-0.0333979
-0.151262
-0.00198899
-0.019468
-0.105927
-0.00230564
-0.0342496
-0.0869578
0.0198337
-0.00665002
0.0317993
-0.0628554
0.00345706
0.0257157
-0.0437849
-1.47438e-05
0.0114346
3.44285e-06
-0.0323602
-0.031084
-0.025017
-0.031628
0.0337629
-0.00645159
0.00320767
-0.0616031
0.0803614
-0.0853742
0.0192645
0.0195114
0.00871993
0.00712645
0.0215028
-0.0925035
-0.000605205
0.0319283
-0.147655
-0.00132638
0.0382256
-0.148329
-0.00441275
0.00683456
-0.0602448
-0.00537759
-0.00633493
-0.0717754
-0.0140086
0.000348376
-0.141731
-0.0248592
0.00686989
-0.143386
-0.0248996
-0.0727167
-0.0140193
-0.108084
-0.0819149
0.0559362
-0.116311
0.0305054
-0.0174994
-0.0304381
0.0521749
-0.112497
-0.0255507
-0.0509509
-0.098768
0.00193409
-0.0546353
-0.146086
-0.00149129
-0.0173941
-0.141674
-0.0014934
-0.0339782
-0.0975486
0.0271753
-0.027239
-0.0690197
-0.000575426
0.000202796
-0.100938
0.0297112
0.0427129
0.0295877
0.0270006
-0.0990976
0.0112306
-0.0676514
0.0507639
-0.000302566
0.00127164
0.0635055
-0.102116
-0.000725189
0.0339685
-0.0672998
0.017566
-0.0959426
0.0269723
0.103894
-0.138749
0.0543913
-0.00196866
0.0331864
-0.00253012
0.0362591
-0.148506
-0.00222109
0.00531524
-0.00209592
-0.11529
0.0308554
0.106633
-0.0178194
-0.114353
0.0803748
-0.093712
0.00538373
0.0388093
0.054988
-0.0379746
-0.0116175
0.0851952
-0.114744
-0.0328967
-0.0102721
0.115526
-0.103961
-0.0383659
0.00766858
-0.00184446
0.025843
-0.0473053
-0.0916638
0.0110093
0.0305419
-0.0508456
-0.096831
0.0524752
-0.110443
0.0146118
-0.00323444
-0.0526131
0.000374025
-0.0148676
-0.0495023
0.0786076
-0.0143218
-0.0501
0.0796218
-0.0148258
-0.0539989
0.0953207
-0.00346842
-0.150794
-0.000648031
0.0473434
-0.00217767
-0.000944793
-0.120635
-0.0270361
-0.0205612
-0.0203747
-0.0737386
-0.0724009
-0.00116498
-0.0457631
-0.0848101
-0.132587
-0.00108963
-0.091832
-0.132369
-0.00228372
-0.026119
0.0385022
0.000490341
-0.104704
0.0810036
0.0400061
-0.0987621
-0.0483661
-0.0470596
-0.0838519
-0.00335866
0.0806473
0.00567291
-0.00835413
0.0975519
-0.0697012
-0.109021
-0.127066
0.117238
-0.0892049
-0.0952082
0.0259916
-0.0488011
-0.00904684
-0.0826789
0.0139391
-0.0154844
-0.0109843
-0.0775002
-0.00167704
0.00887892
-0.0123797
-0.0852176
-0.0142789
0.0310404
-0.00904338
-0.10258
-0.0317369
0.0568118
-0.00771128
-0.135822
-0.0530765
0.0930641
-0.00674477
-0.115922
-0.147221
0.130285
-0.00296243
-0.0891965
-0.160269
0.130413
0.00313174
-0.0118256
-0.130727
0.0463912
0.00696525
-0.0818879
0.0755381
-0.0324479
0.0269712
-0.054764
-0.0432739
0.0521487
-0.0359995
-0.086582
0.0121968
0.00328611
0.0163331
-0.0937874
0.0199986
-0.0346432
0.0218493
-0.0877849
-0.000813283
-0.019581
0.0143919
-0.0551164
-0.0555932
0.0677654
-0.044841
-0.0758195
0.00292392
0.00649509
0.0112837
-0.0900249
0.00341505
0.00153272
0.00925698
-0.105248
0.00364662
0.00731524
0.00426081
-0.0956339
0.00721803
-0.0272075
0.0103761
-0.0988313
0.00418552
-0.0084629
0.00747487
-0.101416
-0.000673661
-0.00125544
0.00451385
-0.102702
-0.00419375
0.00293594
0.00254425
-0.103093
-0.00634765
0.00548173
0.00125681
-0.102918
-0.00772631
0.00710289
0.000447745
-0.102378
-0.00865593
0.0081951
-8.03255e-05
-0.101638
-0.00938173
0.00900268
-0.000360795
-0.100742
-0.00999682
0.00968567
-0.000584938
-0.0997083
-0.0105803
0.0103282
-0.000781977
-0.098519
-0.0111787
0.01096
-0.000970462
-0.0971779
-0.0118122
0.0116419
-0.00117038
-0.095648
-0.0125079
0.0123829
-0.00140437
-0.0938783
-0.0132855
0.0132131
-0.00169699
-0.0918085
-0.0141738
0.0141593
-0.00205502
-0.0893618
-0.01518
0.0152128
-0.00247916
-0.0864544
-0.0163252
0.0163869
-0.0029686
-0.0829912
-0.0176305
0.0176935
-0.00352539
-0.0788431
-0.019137
0.0191594
-0.00416958
-0.0738733
-0.0208781
0.020853
-0.00494374
-0.0678225
-0.0230098
0.0229037
-0.00594384
-0.0604721
-0.0256667
0.0255556
-0.00723899
-0.0517008
-0.0289639
0.0290144
-0.00882165
-0.0412163
-0.0321027
0.0320687
-0.0104504
-0.0315312
-0.0311753
0.0331687
-0.0116784
-0.00752266
-0.0215268
0.00402538
-0.00650747
-0.00324532
-0.0029943
-0.00780014
0.00651586
-0.0354176
0.0172201
0.0293425
-0.0143924
-0.0561363
0.0278578
0.0459642
-0.0530967
-0.0409164
0.0189177
0.0338183
-0.0679566
-0.0369938
0.00621057
-0.0101343
-0.0248421
-0.0268586
0.00776592
0.00694462
-0.0133868
0.0105723
-0.0196533
-0.00237348
-0.00831506
-0.0148442
-0.0170867
-0.0133313
0.00599126
-0.000973888
-0.0106029
0.00873505
-0.0135074
0.00204568
0.0189317
-0.0152206
-0.00999815
-0.00431567
0.00597031
0.0187659
-0.00580475
0.0318133
-0.0188808
-0.00696231
0.0378452
0.0324395
-0.0172733
-0.0211988
-0.0128515
0.00278971
0.0406507
0.00725728
-0.0287179
-0.00417537
0.0524839
-0.00395673
0.000162497
-0.00524344
0.00112473
-0.00389669
0.00308374
0.0034903
0.00142311
0.00559337
-0.0144032
-0.00274738
0.00409494
0.00515043
-0.00300729
0.00991077
-0.0164781
0.00101845
0.0141123
0.0437512
-0.0385731
-0.0128654
0.0176316
0.0160026
0.00281682
0.00648288
0.0184477
-0.00841489
0.0122649
0.00524442
0.00690997
0.00547762
0.0156698
-0.026743
0.0142192
0.00550981
-0.00246545
0.0035577
0.0131277
0.00361165
0.00959291
0.00412572
0.0117521
-0.00458785
0.012272
0.0107827
-0.00986
-0.0238095
0.0415364
0.0441706
-0.0155002
0.0866846
-0.030135
-0.0123722
0.0548087
-0.00789073
0.0813086
0.0552896
0.0357269
-0.0172921
0.0551849
0.0229565
0.00500513
0.0584764
0.00870158
0.00521911
0.0630274
-0.0161523
0.00860616
0.067892
-0.0362153
0.00982318
0.07225
-0.0452294
0.00969527
0.0764857
-0.0456733
0.00933455
0.0810267
-0.0416904
0.00818552
0.0853436
-0.0373957
0.00741266
0.089036
-0.0337765
0.00707476
0.092069
-0.0307672
0.00685708
0.0945488
-0.0282658
0.0066504
0.0965678
-0.0260646
0.00641662
0.0981961
-0.0241451
0.00619301
0.0995086
-0.022472
0.00598065
0.100569
-0.0210188
0.00578521
0.101441
-0.0197569
0.00559995
0.102154
-0.0186448
0.00542438
0.102754
-0.0176682
0.00525676
0.103272
-0.0167951
0.00509902
0.103711
-0.0159607
0.0049421
0.104076
-0.0151558
0.00479348
0.104369
-0.0143183
0.00464355
0.104591
-0.013368
0.0044895
0.104747
-0.0121804
0.00429802
0.104881
-0.0105329
0.00405018
0.105155
-0.00815804
0.00368998
0.10628
-0.0048758
0.00307706
0.109435
-0.00107559
0.00210636
0.11243
0.00198142
0.00224141
0.106663
0.00503471
0.00437952
0.0907765
0.0132191
0.00608213
0.0309345
0.00717281
0.152596
-0.156988
0.0294935
0.00583295
0.115603
0.031083
0.00509729
0.0933993
0.0410088
0.00119329
0.0577588
0.00456248
0.0808461
-0.159302
0.005487
0.102284
-0.179822
-0.0018859
0.0261516
-0.065412
-0.00567564
0.136223
-0.122154
0.0567628
-0.0446796
0.125235
-0.0900618
0.0479759
0.0909413
-0.0162061
0.018764
0.0772723
-0.00990653
0.009297
0.0749522
0.000408365
0.000235597
0.0961112
0.00419298
-0.0114115
0.0549713
-0.0316325
-0.0324774
0.0346803
0.00440476
0.0441319
-0.121228
0.000530071
0.0440899
0.000349486
-0.022476
-0.0336464
-0.0434882
-0.0216132
0.04846
-0.0327334
0.00372162
-0.0530916
0.0797631
0.0263396
-0.0973147
0.0396728
-0.0372347
-0.0462458
0.0910887
-0.101908
-7.51621e-05
0.0843845
-0.129053
-0.00299374
0.143165
-0.00138655
-0.129516
0.0721226
-0.00179384
-0.110338
-0.0538065
-0.00289988
0.117945
-0.0971864
0.0605537
-0.00414141
-0.0709505
-0.00180649
0.0351176
-0.0691094
0.0146936
-0.0760816
0.036768
-0.0912425
-0.076849
0.0582582
0.106974
-0.093347
0.0549307
0.0379936
0.00546544
-0.0401313
0.0442921
0.072687
0.0449267
0.0207245
-0.00114075
0.00365781
-0.0206894
-0.118881
-0.0275975
0.149191
0.000804289
-0.026979
-0.0547126
-0.037585
-0.0555345
-0.0267117
-0.0575324
-0.0421739
0.00508885
0.0570323
-0.0359973
-0.0955728
0.108622
-0.0345839
-0.0914648
-0.0791888
0.00206989
-0.104507
-0.00209033
-0.11641
0.0852
-0.0740638
0.000767489
-0.138394
-0.0671125
-0.000107495
-0.136126
-0.0523764
0.00130607
-0.127428
-0.0257139
0.0015331
-0.124625
0.00448208
0.00159645
-0.127193
0.0330946
0.00051402
-0.133303
0.0632361
-0.000312222
-0.130184
0.0900496
-0.000102645
-0.106087
0.103688
0.00250366
-0.0209586
0.0400886
0.00519765
-0.0964431
-0.0429826
0.0824818
0.0359862
0.0669736
-0.041489
-0.0263616
0.0405194
0.00983398
-0.0971263
0.046291
-0.00368728
0.0281605
-0.0379301
-0.00285962
-0.019654
-0.0366823
-0.0783056
-0.00328973
0.0215815
0.0220833
-0.0973114
-0.00425874
0.0265484
-0.0306595
-0.0381117
-0.0258493
-0.0026913
-0.0465234
0.00859417
0.0102907
-0.0030215
-0.0858665
0.0196155
0.0236173
-0.00388899
-0.0959613
0.0210685
-0.00447804
-0.106913
0.0171291
-0.0046452
-0.103071
0.00795531
-0.00448308
-0.0282311
-0.0402164
-0.0319524
-0.00267041
-0.0367528
0.00556488
0.00568518
-0.00272863
-0.0433185
0.00450363
-0.00348799
0.00555023
-0.0465141
0.00208846
-0.00383001
0.00493744
-0.0479063
0.000754275
-0.00398237
0.00462045
-0.0483202
3.06685e-05
-0.00406823
0.00445127
-0.048112
-0.000488124
-0.00412208
0.00440169
-0.0474959
-0.000820337
-0.00422132
0.00442515
-0.0466068
-0.00106283
-0.00432056
0.00449417
-0.0455192
-0.00127279
-0.00440627
0.00459137
-0.044286
-0.00146391
-0.00449304
0.00472379
-0.042904
-0.00166494
-0.00456378
0.00484684
-0.0413679
-0.00186764
-0.00464919
0.00498103
-0.0396661
-0.00209328
-0.0047239
0.00511588
-0.037754
-0.00234757
-0.0048019
0.0052378
-0.0355986
-0.00262797
-0.00488189
0.00535478
-0.0331523
-0.00293676
-0.00496772
0.00545876
-0.0303762
-0.0032581
-0.00508213
0.00556483
-0.0272152
-0.00358831
-0.0052444
0.00567249
-0.0235768
-0.00391777
-0.00548302
0.0057632
-0.0192853
-0.00424978
-0.00583336
0.00579239
-0.0139689
-0.0045974
-0.00634997
0.00563146
-0.00697853
-0.00501856
-0.00706184
0.00509003
0.00306421
-0.00564635
-0.00827998
0.0038835
0.0152712
-0.00530579
-0.00978404
0.00288266
0.0225822
-0.000620057
-0.0086104
0.00191916
0.00776607
0.015499
-0.00631065
0.00562733
0.00713604
0.000130827
0.000497543
0.00220543
0.00564813
-0.00071562
-0.0278519
0.0248903
-0.00263014
-0.0112945
0.00296471
0.0132425
0.00800766
0.0248446
0.0151594
0.0346944
0.0135178
0.0429018
0.0123295
0.0495335
0.0116749
0.054988
0.0111501
0.0595555
0.0106764
0.0634144
0.010249
0.0666903
0.00985543
0.0694781
0.00949033
0.0718672
0.00914363
0.0739223
0.00881137
0.0757158
0.00849707
0.077303
0.00818833
0.0786997
0.00789947
0.0799394
0.00762512
0.0810018
0.00735061
0.0818488
0.00709257
0.0823643
0.00685861
0.0823512
0.00662671
0.0814263
0.00643592
0.0789341
0.00618146
0.074086
0.00568095
0.0653619
0.00476507
0.00350389
-0.00125539
0.0288612
-0.050368
0.038124
-0.00526312
0.0266727
-0.00367463
-0.0571145
-0.0329388
0.117303
-0.0489096
-0.0444025
0.00347223
-0.0527862
0.000870594
0.00402518
-0.0570386
-0.00234079
0.00276324
-0.0589464
-0.00409859
0.00202362
-0.0594875
-0.00510825
0.0015804
-0.0592448
-0.00571833
0.00135281
-0.0585801
-0.00614213
0.00125581
-0.0576556
-0.00646912
0.00122401
-0.0565457
-0.00674594
0.00122991
-0.0552892
-0.00701288
0.00126368
-0.0538834
-0.00727811
0.00130911
-0.0523241
-0.00756806
0.00136047
-0.0505711
-0.00789203
0.00141599
-0.0485875
-0.00824331
0.00145862
-0.0463431
-0.00861973
0.00149453
-0.0437776
-0.00903667
0.00150485
-0.0408437
-0.00949495
0.00148076
-0.0374779
-0.010013
0.00140472
-0.0335922
-0.0106143
0.00124737
-0.0290153
-0.0113562
0.000947257
-0.0234569
-0.0123071
0.000399342
-0.0165457
-0.0136247
-0.000348285
-0.00809259
-0.0155356
-0.00119773
0.00331611
-0.0183074
-0.0028861
0.0150761
-0.0147049
-0.00566814
0.0040236
0.00460888
0.000124866
0.00511296
-0.000957146
0.00386126
-0.00189763
0.00315232
0.00116675
0.00309669
-0.000406208
0.0144839
0.0104208
-8.88991e-05
-0.0236422
-0.0442488
0.049884
-0.00203362
0.0108738
0.00326943
-0.0587593
0.0112389
-0.0726018
0.0718871
0.00398446
-0.0500245
-0.0084434
-0.0141349
-0.0449406
0.0192503
-0.0524962
0.0281664
0.0411734
-0.0171353
-0.0325664
-0.0364141
-0.00421432
0.0058822
-0.0345718
0.000315144
0.0273074
0.00273685
0.000323451
-0.013484
-0.0216308
0.000218196
-0.0131787
0.000675869
-0.0207304
0.0335515
-0.0219608
0.0111606
-0.0023795
-0.00345914
0.0042111
-0.0175595
-0.00515399
0.0182726
-0.0116008
-0.00368448
-0.00644769
0.00618031
0.0163604
-0.00426819
0.0215135
-0.0105907
-0.00474018
0.0516923
0.0158091
-0.0354152
-0.0453887
0.0181803
0.0505649
0.0283368
-0.0319344
0.0388331
-0.0364795
-0.00441826
-0.00306426
-0.00443186
0.00307825
-0.00533712
-0.000102905
0.00424937
0.00334756
0.00516829
-0.0181023
1.34462e-06
0.00917593
0.00349957
-0.0084276
0.0101648
-0.0112482
-0.00485471
0.027271
0.00370999
-0.0206927
-0.000205543
-0.0139913
0.0392758
0.00235462
-0.000243726
-0.01352
-0.00355254
-0.00573033
-0.0142797
0.000115416
-0.000874352
-6.4837e-05
-0.00961954
-0.00372145
-0.00282061
-0.0116649
-0.00394887
-0.00261612
-0.00376962
-0.00803587
-0.00430714
0.009506
-0.000717484
-0.00709743
0.00880529
-0.00662494
-0.00319901
-0.003289
0.0156248
0.00526536
-0.00522673
-0.00685844
0.0143953
-0.00712261
-0.0148194
-0.00103064
-0.00373251
-0.0125606
-0.00719798
-0.00275961
0.0123381
-0.00995071
-0.00579126
-0.00130646
0.0021271
0.000384149
-0.00784185
-0.000724144
-0.00389596
-0.00158764
0.00168791
-0.00600925
-0.00292749
-0.00537323
-0.00237696
-0.00507707
-0.00209864
-0.0043279
-0.00534297
0.000556949
0.00673704
0.00883064
-0.00692939
-0.00405716
-0.00217239
0.011397
-0.00556433
0.00600347
-0.00300559
-0.00741957
0.00889698
-0.00530164
0.0104059
-0.00804409
-0.00619888
-0.00358278
0.0146356
-0.00899835
-0.00522998
0.0147751
-0.0117898
-0.00722987
0.00176373
-0.00426166
0.0104076
-0.00378298
-0.00486128
0.0301152
0.0272048
-0.0299263
-0.0169871
-0.00463467
0.00174409
0.0364507
-0.00344294
0.0395131
-0.0141503
-0.0143474
-0.0263692
0.000771769
0.0794586
-0.00383151
0.00364068
-0.0140329
0.00656017
-0.017103
0.00837544
-0.00758355
0.00392239
0.0296837
-0.0431268
0.0119156
0.0149019
-0.0484347
0.0175443
0.0095818
-0.0112897
-0.00468206
0.0602888
0.0727274
0.0765582
-0.0504365
0.0406371
-0.0791985
-0.0111597
0.0155948
0.0449847
0.0233115
0.0117818
0.0224795
0.0279827
-0.0734039
0.0116106
0.00787179
-0.00392557
0.00304565
0.0124904
0.00707069
0.0114828
0.00548956
-0.015976
0.0175555
-0.00651381
0.0150473
-0.0151607
0.0615032
0.0201534
0.160036
-0.00306752
0.117247
-0.104294
-0.149769
0.146936
-0.00122359
0.0977612
0.0267498
-0.110185
0.120266
0.000265792
0.0765182
0.016729
-0.0668451
0.0925306
0.00198254
0.057439
-0.0089626
-0.0227258
0.0787242
0.00188965
0.0395203
-0.0192987
-0.00830675
0.0655044
0.00227584
0.0257644
-0.0146432
-0.000174484
0.0556523
0.00140966
0.0185466
-0.0107363
0.000633761
0.0461544
0.000980334
0.0131575
-0.0060382
0.0013978
0.0407743
0.00147249
0.0120014
-0.00446854
-0.00362516
0.0392658
0.00207965
0.01128
-0.0045011
-0.00734969
0.0413039
0.00256885
0.011076
-0.00552025
-0.0101627
0.045481
0.00282235
0.011051
-0.00655499
-0.0114953
0.050632
0.00294701
0.0112363
-0.00726661
-0.0120671
0.0559658
0.0029824
0.0116335
-0.00766712
-0.0122815
0.0610845
0.00294431
0.0121864
-0.00787954
-0.0123688
0.0658193
0.00286152
0.0128024
-0.00799055
-0.0124071
0.0701237
0.0027635
0.0133695
-0.00804126
-0.0123953
0.0740425
0.0026716
0.0137807
-0.00805168
-0.0123189
0.07759
0.00258931
0.0140818
-0.00803632
-0.012182
0.0808059
0.00252018
0.0142801
-0.00800308
-0.0120128
0.0837287
0.00245824
0.0143547
-0.00792993
-0.0118053
0.086386
0.00240118
0.0143619
-0.00782486
-0.0115951
0.0887709
0.00234351
0.0143358
-0.00768174
-0.0113824
0.0908553
0.00228961
0.0143477
-0.00750182
-0.0112199
0.0926205
0.00223948
0.0144328
-0.00727571
-0.0111618
0.0939534
0.00220168
0.0146969
-0.00697584
-0.011256
0.094697
0.00217237
0.0152852
-0.00655275
-0.0116489
0.0945707
0.002144
0.0163898
-0.00589694
-0.0125112
0.0931063
0.00209863
0.0182054
-0.0048131
-0.014027
0.0898205
0.00198481
0.0211326
-0.00300631
-0.0168253
0.0957866
0.00155039
0.0232536
-0.00190853
0.0880841
0.00205613
0.024892
-0.0112899
0.0809393
0.00147087
0.0300776
-0.00727393
0.0702186
0.000577336
0.0457336
-0.0145218
-0.000955383
0.0529594
-5.89449e-05
0.037889
0.0708436
0.00668261
-0.000570449
0.0446546
0.0304356
-0.00988165
0.0443732
-0.05842
-0.00707804
-0.0348614
0.107627
-0.0450214
-0.0545493
0.00678412
-0.099192
0.0185159
0.0222381
-0.111159
-0.0115634
0.0190524
-0.123391
-0.00660215
0.0141896
-0.0137734
0.00320221
-0.116008
0.0988463
0.00197615
0.00141189
-0.10371
0.00603702
0.00838926
-0.0267234
-0.106158
0.00272336
0.00505326
-0.00532897
-0.108245
-0.00246409
0.00185226
0.00269894
-0.109219
-0.00601461
-0.000271802
0.00726012
-0.109538
-0.00821338
-0.00140416
0.00993613
-0.109421
-0.00960339
-0.00210407
0.0115892
-0.109055
-0.0105361
-0.00252548
0.0126964
-0.108494
-0.0112619
-0.00281819
0.0135193
-0.107785
-0.0118842
-0.00305272
0.014228
-0.106948
-0.0124821
-0.00326475
0.0149097
-0.105949
-0.0131033
-0.00348093
0.0155854
-0.104781
-0.0137618
-0.00371385
0.0163079
-0.103447
-0.0144786
-0.00397543
0.0171202
-0.10191
-0.0152837
-0.00428364
0.018031
-0.100073
-0.0162103
-0.00465003
0.0190232
-0.0978573
-0.0172669
-0.00507403
0.020126
-0.095189
-0.0184818
-0.00555561
0.02137
-0.0919581
-0.0198865
-0.00610565
0.0227622
-0.0880335
-0.0215322
-0.00674104
0.0243494
-0.0832741
-0.0234659
-0.0075026
0.0262095
-0.0774451
-0.025877
-0.00846221
0.0285104
-0.0702947
-0.0289871
-0.00966133
0.0314979
-0.0615286
-0.0328794
-0.011103
0.0352163
-0.0504951
-0.0367679
-0.0126678
0.0384021
-0.0397085
-0.0365718
-0.0145664
0.0403516
-0.0146536
-0.0266717
-0.00983457
0.0114501
-0.0044013
-0.00672717
0.00190945
-0.00543576
-0.0299536
0.0124109
0.0235626
-0.0516748
0.0268342
0.0447824
-0.0482036
0.0306712
0.0377447
-0.0444108
-0.0122375
-0.0249698
0.00430177
0.00584351
-0.0295843
0.0117482
-0.019766
-0.0154834
-0.00146746
-0.021544
-0.0363377
-0.00597172
-0.0107133
-0.00485914
0.0168588
-0.0184489
-0.00438101
-0.011219
-0.00449003
-0.0222202
-0.00248284
0.00442695
-0.0038423
-0.017628
-0.00517649
-0.0146117
-0.0024762
-0.00972415
-0.00117833
-0.0037745
0.000129613
-0.000938457
-0.00704671
-0.00186851
-0.000570231
-0.00701261
-0.00190709
-0.00858025
-0.00196737
-0.000983493
0.000246714
-0.00652702
-0.00131645
-0.000996202
-0.00449282
-0.0015035
-0.00202595
-0.00402505
-0.000318366
-0.00170701
-0.00381607
-0.00158012
-0.00342039
-0.00410622
0.000476578
-0.00332263
-0.00549239
-0.0015351
0.00522816
-0.00423137
-0.00326159
-0.00105773
0.00676603
-0.00394244
-0.00165292
-0.00475882
-0.0020849
0.00663231
-0.00550258
-0.00438461
-0.00150389
0.00845368
-0.00563761
-0.00238321
0.010438
-0.00754231
-0.00344046
0.0119487
-0.00978063
-0.00351946
0.0108361
-0.00266988
0.0273691
-0.0132602
-0.00327392
0.00249919
-0.00506035
0.0272352
-0.0208452
-0.00389068
0.0448226
0.0500175
-0.0464682
-0.0211371
0.0774826
-0.0319655
-0.00069096
-0.0186513
0.0909296
0.00520542
0.028552
0.00281955
0.0332484
-0.00295445
0.0246069
-0.044345
0.0519041
0.0010794
0.0825183
-0.0206839
0.085176
0.0400447
0.0367529
0.110559
0.0491591
0.00676984
0.10893
0.0296337
0.00771708
0.114407
0.0109188
0.00655773
0.125201
-0.00678638
0.00469171
0.130448
-0.0248385
0.00343915
0.132414
-0.0384215
0.000239077
0.132466
-0.0438752
-0.00140497
0.132576
-0.0432508
-0.00253188
0.134
-0.0395633
-0.00355042
0.136273
-0.0356446
-0.00402393
0.138365
-0.0318009
-0.00406663
0.140151
-0.0286289
-0.00392388
0.141579
-0.0260018
-0.00369162
0.142714
-0.0237667
-0.00343153
0.143598
-0.021886
-0.00314251
0.144282
-0.0203157
-0.00283957
0.144804
-0.0190035
-0.00253683
0.145195
-0.0178939
-0.00225355
0.145503
-0.0169591
-0.00199419
0.145736
-0.0161339
-0.00176655
0.145893
-0.0153911
-0.00156104
0.146013
-0.0146991
-0.00138164
0.146093
-0.0140108
-0.00122504
0.146152
-0.0132892
-0.00108882
0.14623
-0.012474