/*--------------------------------*- C++ -*----------------------------------*\
  =========                 |
  \\      /  F ield         | OpenFOAM: The Open Source CFD Toolbox
   \\    /   O peration     | Website:  https://openfoam.org
    \\  /    A nd           | Version:  7
     \\/     M anipulation  |
\*---------------------------------------------------------------------------*/
FoamFile
{
    version     2.0;
    format      ascii;
    class       volVectorField;
    location    "18.9";
    object      U;
}
// * * * * * * * * * * * * * * * * * * * * * * * * * * * * * * * * * * * * * //

dimensions      [0 1 -1 0 0 0 0];

internalField   nonuniform List<vector> 
15010
(
(-0.143408 -0.224237 -10.3812)
(0.0691916 -0.31399 -10.4758)
(-0.248213 -0.465524 -10.4669)
(-0.563477 -0.406765 -10.082)
(-0.68858 -0.259375 -9.38679)
(-0.81324 0.191327 -8.69665)
(-0.548149 0.364725 -7.42992)
(-0.284419 0.36978 -6.31224)
(0.0154035 0.240099 -4.28104)
(-0.0486374 -0.350299 -4.47896)
(-0.329143 -0.366902 -6.27825)
(-0.568639 -0.35002 -7.34236)
(-0.810756 -0.182565 -8.56737)
(-0.682272 0.261382 -9.25182)
(-0.559797 0.406261 -9.94916)
(-0.251232 0.459966 -10.3478)
(0.0578382 0.310443 -10.3741)
(-0.155582 0.240888 -10.2881)
(0.0965991 0.395583 -10.6689)
(0.104194 -0.369826 -10.7639)
(0.131579 -0.374029 -10.8543)
(0.108387 -0.335128 -10.5871)
(-0.224459 -0.574346 -10.3733)
(-0.496091 -0.406914 -9.98889)
(-0.66804 -0.258142 -9.32294)
(-0.788894 0.186879 -8.62674)
(-0.514288 0.356185 -7.35939)
(-0.254751 0.362856 -6.17229)
(0.0512221 0.23737 -4.06977)
(-0.0190304 -0.341116 -4.26946)
(-0.300059 -0.362805 -6.13614)
(-0.535769 -0.341622 -7.26917)
(-0.787355 -0.178855 -8.4956)
(-0.661664 0.259753 -9.18542)
(-0.492517 0.406661 -9.85297)
(-0.224971 0.566487 -10.2486)
(0.0978455 0.329631 -10.481)
(0.124325 0.399705 -10.7577)
(0.14443 0.410573 -10.7956)
(0.152333 -0.386236 -10.8916)
(0.137288 -0.376595 -10.6335)
(-0.200485 -0.626811 -10.4048)
(-0.456088 -0.415659 -9.96214)
(-0.642703 -0.259635 -9.27522)
(-0.764784 0.199671 -8.56072)
(-0.484693 0.358073 -7.25873)
(-0.227177 0.357966 -6.03983)
(0.0710731 0.240838 -3.87139)
(0.0001599 -0.337549 -4.06504)
(-0.27198 -0.359559 -5.99893)
(-0.507367 -0.343392 -7.16724)
(-0.764434 -0.192101 -8.42748)
(-0.63701 0.261022 -9.13595)
(-0.453629 0.416113 -9.82414)
(-0.200024 0.617892 -10.2765)
(0.127058 0.367542 -10.5258)
(0.155615 0.395188 -10.5598)
(0.168729 0.414195 -10.8112)
(0.177384 -0.390912 -10.9075)
(0.165708 -0.406466 -10.6692)
(-0.183386 -0.66168 -10.4214)
(-0.427447 -0.426706 -9.95597)
(-0.623019 -0.262509 -9.24148)
(-0.744028 0.217574 -8.4895)
(-0.459038 0.362904 -7.15175)
(-0.202704 0.357352 -5.91139)
(0.0836897 0.248095 -3.69395)
(0.0136441 -0.339016 -3.87321)
(-0.246811 -0.360051 -5.86509)
(-0.482962 -0.348267 -7.05986)
(-0.74516 -0.210369 -8.35516)
(-0.618146 0.263494 -9.10094)
(-0.425923 0.427463 -9.81633)
(-0.182123 0.652249 -10.2902)
(-0.163579 0.673162 -10.2988)
(0.186859 0.415332 -10.5902)
(0.200266 0.41721 -10.8349)
(0.208955 -0.395494 -10.9331)
(0.196622 -0.428024 -10.7014)
(-0.165365 -0.682804 -10.432)
(-0.404096 -0.436763 -9.95844)
(-0.609987 -0.264723 -9.21839)
(-0.727742 0.237902 -8.42021)
(-0.438058 0.368751 -7.04165)
(-0.180761 0.35959 -5.78558)
(0.0916592 0.25819 -3.52207)
(0.0228255 -0.344694 -3.68299)
(-0.224488 -0.36419 -5.73371)
(-0.462925 -0.3551 -6.94933)
(-0.72987 -0.231498 -8.28451)
(-0.605433 0.26518 -9.07651)
(-0.403249 0.437587 -9.81736)
(-0.385018 0.446617 -9.81712)
(-0.147287 0.687433 -10.3025)
(0.21617 0.430812 -10.6187)
(0.231355 0.421971 -10.8661)
(0.239931 -0.401434 -10.9659)
(0.225535 -0.444329 -10.7315)
(-0.14945 -0.697169 -10.437)
(-0.385325 -0.445739 -9.95931)
(-0.602893 -0.264766 -9.19764)
(-0.715777 0.260617 -8.35085)
(-0.422087 0.3743 -6.93078)
(-0.160047 0.362546 -5.66429)
(0.0971242 0.269519 -3.35212)
(0.0292749 -0.352697 -3.49163)
(-0.203126 -0.369588 -5.60535)
(-0.447117 -0.361681 -6.83594)
(-0.718602 -0.254709 -8.21282)
(-0.598634 0.264884 -9.05421)
(-0.59289 0.264362 -9.03219)
(-0.369336 0.457105 -9.81378)
(-0.131549 0.699371 -10.2989)
(0.244894 0.444725 -10.6407)
(0.263122 0.427535 -10.8943)
(0.271592 -0.408278 -10.9955)
(0.253991 -0.458924 -10.755)
(-0.133823 -0.709157 -10.4345)
(-0.368873 -0.456297 -9.95665)
(-0.596246 -0.264897 -9.17675)
(-0.701014 0.28493 -8.27988)
(-0.407057 0.378742 -6.82007)
(-0.13881 0.366332 -5.55028)
(0.102863 0.281841 -3.18481)
(0.0357532 -0.361005 -3.29992)
(-0.180647 -0.374709 -5.48339)
(-0.433111 -0.366075 -6.72221)
(-0.705233 -0.278771 -8.14007)
(-0.687402 -0.305064 -8.06777)
(-0.586158 0.262413 -9.01212)
(-0.353062 0.46844 -9.80898)
(-0.11321 0.710183 -10.2884)
(0.274271 0.457869 -10.6562)
(0.29729 0.433144 -10.9177)
(0.305702 -0.415053 -11.0203)
(0.283039 -0.472731 -10.7721)
(-0.11568 -0.720097 -10.425)
(-0.351916 -0.467676 -9.95242)
(-0.588684 -0.263609 -9.15739)
(-0.681892 0.311263 -8.20841)
(-0.390648 0.380737 -6.71066)
(-0.114592 0.369753 -5.44593)
(0.112406 0.293544 -3.02284)
(0.0452585 -0.368621 -3.11105)
(-0.155277 -0.379431 -5.37203)
(-0.417712 -0.368489 -6.61032)
(-0.397315 -0.367831 -6.50459)
(-0.660392 -0.33348 -7.99691)
(-0.573717 0.258481 -8.99162)
(-0.331905 0.481266 -9.79774)
(-0.0874738 0.721195 -10.2656)
(0.305429 0.471641 -10.657)
(0.335631 0.438557 -10.9251)
(0.34421 -0.421903 -11.0288)
(0.314161 -0.486748 -10.7741)
(-0.0902703 -0.730933 -10.403)
(-0.330424 -0.480617 -9.94162)
(-0.575675 -0.260182 -9.13722)
(-0.653743 0.339621 -8.13791)
(-0.369264 0.379218 -6.6072)
(-0.0852878 0.371789 -5.35774)
(0.130359 0.302313 -2.87571)
(0.0623201 -0.373537 -2.93371)
(-0.124896 -0.382743 -5.27773)
(-0.0869819 -0.383367 -5.21077)
(-0.365649 -0.363088 -6.41349)
(-0.61646 -0.363606 -7.93065)
(-0.545933 0.253157 -8.96786)
(-0.297717 0.4936 -9.7727)
(-0.0466962 0.72921 -10.2231)
(0.346294 0.483913 -10.6292)
(0.387518 0.44113 -10.8988)
(0.396202 -0.426231 -11.0036)
(0.354656 -0.499285 -10.7476)
(-0.0493232 -0.739006 -10.3602)
(-0.2959 -0.493528 -9.91656)
(-0.54738 -0.255404 -9.11331)
(-0.608883 0.369597 -8.07146)
(-0.33686 0.37307 -6.51821)
(-0.0482053 0.371373 -5.2956)
(0.163183 0.305126 -2.76083)
(0.0932987 -0.373052 -2.78445)
(0.148507 -0.365833 -2.67957)
(-0.0381498 -0.382272 -5.18227)
(-0.312769 -0.352669 -6.34877)
(-0.541724 -0.393024 -7.87289)
(-0.485745 0.247625 -8.93935)
(-0.235351 0.506422 -9.72712)
(0.025757 0.732977 -10.1529)
(0.406445 0.493915 -10.5673)
(0.466684 0.437364 -10.8346)
(0.47568 -0.425351 -10.9404)
(0.414437 -0.509287 -10.6869)
(0.0237675 -0.743202 -10.2892)
(-0.233398 -0.507554 -9.87026)
(-0.486705 -0.25055 -9.08412)
(-0.53362 0.398893 -8.01279)
(-0.28367 0.360756 -6.45559)
(0.00022242 0.369775 -5.27086)
(0.220836 0.299748 -2.69512)
(0.30806 0.292202 -2.70034)
(0.235155 -0.35785 -2.6408)
(0.0243366 -0.38614 -5.1981)
(-0.22633 -0.333924 -6.32278)
(-0.420323 -0.415362 -7.83635)
(-0.372607 0.244203 -8.91773)
(-0.124005 0.520453 -9.66718)
(0.149305 0.738716 -10.0573)
(0.487839 0.505342 -10.4649)
(0.583302 0.426783 -10.7366)
(0.592665 -0.41876 -10.8434)
(0.49471 -0.520864 -10.5848)
(0.147778 -0.750494 -10.1922)
(-0.121914 -0.523243 -9.80876)
(-0.372655 -0.248018 -9.06131)
(-0.411849 0.4212 -7.97435)
(-0.196674 0.339524 -6.43264)
(0.0631314 0.374737 -5.29052)
(0.139998 0.397976 -5.33709)
(0.429683 0.289203 -2.87451)
(0.360515 -0.354437 -2.77029)
(0.100219 -0.404999 -5.24508)
(-0.10096 -0.311319 -6.33545)
(-0.245249 -0.431177 -7.83905)
(-0.186994 0.241128 -8.92183)
(0.059981 0.522954 -9.61886)
(0.344753 0.74915 -9.97158)
(0.619859 0.518551 -10.3209)
(0.754765 0.413982 -10.5656)
(0.764308 -0.411798 -10.6735)
(0.625835 -0.534765 -10.4401)
(0.344042 -0.76333 -10.1058)
(0.0621468 -0.528345 -9.75957)
(-0.186165 -0.246106 -9.06447)
(-0.23665 0.436117 -7.97559)
(-0.0711003 0.315743 -6.44393)
(0.0791187 0.31198 -6.44861)
(0.226379 0.404622 -5.3921)
(0.654074 0.227299 -3.4955)
(0.589846 -0.288532 -3.36212)
(0.188123 -0.407751 -5.30793)
(0.0515334 -0.305824 -6.34434)
(-0.0187687 -0.450543 -7.89087)
(0.064469 0.22963 -8.93276)
(0.308798 0.507633 -9.61593)
(0.639778 0.721686 -9.98142)
(0.896595 0.479676 -10.1618)
(1.08226 0.361306 -10.2563)
(1.09161 -0.367068 -10.3651)
(0.902437 -0.496449 -10.2791)
(0.639533 -0.738441 -10.1163)
(0.310183 -0.515479 -9.75727)
(0.0656679 -0.2357 -9.07507)
(-0.0107788 0.455286 -8.02691)
(0.24541 0.469454 -8.06782)
(0.516277 0.648813 -6.76779)
(0.366164 0.735945 -4.78768)
(0.28247 0.334994 -6.11078)
(0.351471 -0.482658 -7.00464)
(0.861604 -0.532193 -7.23234)
(0.905269 0.616015 -7.06366)
(0.990149 0.768892 -5.30662)
(1.55353 0.0258061 -4.56623)
(1.10362 -0.0300013 -4.07398)
(1.03813 -0.0240197 -3.94689)
(0.322221 -0.715 -4.68603)
(0.25594 -0.323541 -6.01039)
(0.497884 -0.6377 -6.64264)
(0.240423 -0.464149 -7.93159)
(0.380304 0.20821 -8.90299)
(0.580528 0.488561 -9.57774)
(0.980967 0.546791 -9.9619)
(1.69223 0.234151 -10.164)
(1.69872 -0.256209 -10.2754)
(0.980079 -0.565579 -10.0961)
(0.579966 -0.498896 -9.71838)
(0.380922 -0.214953 -9.04472)
(0.787604 -0.245551 -9.01728)
(0.683164 0.343485 -8.2267)
(1.28965 0.223017 -8.2833)
(1.53774 0.585698 -7.28054)
(1.73007 0.780795 -5.67482)
(2.06688 0.10148 -4.93355)
(2.00301 -0.117995 -4.80595)
(1.48618 -0.0660511 -4.43763)
(0.945977 -0.744801 -5.20234)
(0.88685 -0.602162 -6.93576)
(0.680237 -0.339429 -8.08787)
(0.786803 0.236266 -8.875)
(0.965396 0.467332 -9.43236)
(1.36174 0.451279 -9.67121)
(1.98054 0.186615 -9.99131)
(1.98399 -0.21841 -10.0983)
(1.35986 -0.47434 -9.80377)
(0.964223 -0.482193 -9.57187)
(1.47807 -0.498772 -9.31931)
(1.33726 -0.287428 -8.97037)
(2.01963 -0.236203 -8.75758)
(2.00249 0.118961 -8.16202)
(2.35803 0.541507 -7.35613)
(2.66921 0.903945 -5.86315)
(3.0595 0.494057 -5.40549)
(3.5934 0.976253 -4.15145)
(2.71812 0.289806 -5.31552)
(2.65846 -0.279453 -5.18836)
(3.01267 -0.473194 -5.29461)
(2.6284 -0.862976 -5.75517)
(1.68768 -0.749407 -5.57016)
(1.52018 -0.567261 -7.14682)
(1.28896 -0.221694 -8.14042)
(1.33728 0.274184 -8.82446)
(1.47911 0.478626 -9.18015)
(1.83402 0.413747 -9.31248)
(2.28723 0.20851 -9.80826)
(2.29024 -0.259372 -9.91715)
(1.83439 -0.440104 -9.44759)
(2.33569 -0.573256 -9.09339)
(2.42283 -0.580397 -8.83729)
(2.93918 -0.46682 -8.50136)
(2.77088 -0.26473 -8.26102)
(2.86761 0.00803748 -7.81264)
(3.29061 0.424689 -7.21487)
(3.71555 0.755496 -5.80517)
(3.80583 0.566298 -5.529)
(4.6272 0.708848 -4.32141)
(4.56122 -0.648606 -4.20952)
(3.51474 -0.96705 -4.03031)
(3.04067 0.41654 -6.61153)
(4.14042 0.405122 -6.44232)
(3.76009 -0.525545 -5.41113)
(3.677 -0.699228 -5.69128)
(3.28043 -0.400361 -7.06245)
(2.34296 -0.518449 -7.21476)
(2.00298 -0.121195 -8.01416)
(2.01941 0.219536 -8.60798)
(2.43227 0.552438 -8.69128)
(2.63264 0.407552 -8.98111)
(2.34038 0.539281 -8.95308)
(1.62484 0.147113 -9.22798)
(1.92336 0.0885112 -8.55702)
(2.36807 -0.00938115 -8.37046)
(2.96351 -0.050516 -8.06254)
(2.77463 0.2388 -8.10758)
(2.95302 0.431166 -8.34921)
(3.06122 0.270137 -8.66357)
(3.10318 0.191754 -8.74498)
(3.09961 -0.285211 -8.86287)
(3.05303 -0.336445 -8.79448)
(3.77209 -0.100301 -8.49162)
(3.86333 -0.104034 -8.24236)
(3.47877 -0.309736 -7.87324)
(3.44053 -0.268392 -7.68131)
(3.74048 -0.0760272 -7.21604)
(4.21676 0.342686 -6.54542)
(4.99653 0.54294 -5.59552)
(5.57162 0.813467 -4.07738)
(4.79728 0.463355 -5.4407)
(5.02063 -0.610177 -5.88615)
(6.27273 -0.867801 -4.92565)
(5.84743 0.395952 -4.6883)
(6.64291 0.438192 -3.31733)
(7.2248 0.169863 -1.44094)
(7.38881 0.00451789 0.480914)
(7.2206 0.0145048 2.52359)
(6.8449 -0.0540029 4.30494)
(6.18935 -0.0816629 5.7601)
(5.22008 -0.0091093 6.89808)
(4.15468 0.0284075 7.342)
(3.27552 0.0802596 7.45468)
(2.81609 0.314264 6.01513)
(2.4755 0.386666 6.56786)
(1.95693 0.300157 6.44778)
(1.82833 0.263609 6.9471)
(1.54479 0.327677 7.40023)
(1.07811 0.433274 7.63955)
(0.835035 0.309837 7.17983)
(0.665554 0.307332 7.43087)
(0.433235 0.317884 7.60531)
(0.212714 0.339736 7.74014)
(-0.00938371 0.348012 8.14512)
(-0.170563 0.331696 8.35713)
(-0.284633 0.33661 8.45707)
(-0.366124 0.35599 8.48057)
(-0.424875 0.379271 8.46691)
(-0.467937 0.401472 8.4264)
(-0.504425 0.422092 8.36741)
(-0.537345 0.442811 8.29672)
(-0.569622 0.464439 8.21555)
(-0.602875 0.487469 8.12451)
(-0.638014 0.512181 8.02288)
(-0.675995 0.538604 7.90942)
(-0.718084 0.567168 7.78195)
(-0.765703 0.598048 7.63747)
(-0.819369 0.630721 7.47236)
(-0.880266 0.665439 7.28232)
(-0.949243 0.702194 7.06145)
(-1.02713 0.740555 6.79992)
(-1.11365 0.778016 6.48168)
(-1.21327 0.817548 6.08513)
(-1.32534 0.866532 5.57759)
(-1.44322 0.9286 4.90785)
(-1.52281 0.953514 4.01738)
(-1.48483 0.877101 2.92594)
(-1.11968 0.486858 1.96359)
(0.0980457 -0.476535 -0.765876)
(3.3001 -0.637951 1.86168)
(5.16225 1.16026 3.40732)
(7.1796 1.76712 5.21318)
(5.28892 6.42709 0.966056)
(1.90488 6.02647 -2.46678)
(1.31825 3.55572 -4.5529)
(-0.0748168 3.38865 -3.37403)
(-0.759424 2.72933 -3.30509)
(-1.11102 0.999048 -2.55185)
(-0.866243 0.71652 -1.96857)
(-1.40104 1.60249 -2.53796)
(-1.80905 1.88337 -3.45422)
(-1.96631 3.29804 -2.94564)
(-0.792114 6.29491 -1.86338)
(-0.0673571 5.32512 -3.1382)
(-0.704395 3.03097 -3.15155)
(1.06555 1.8599 -1.57024)
(0.103662 3.07662 -2.01402)
(-0.0615575 1.60989 -2.03248)
(0.593893 2.9772 -1.62636)
(0.0671261 1.70633 -1.42384)
(0.483267 2.59587 -1.27341)
(0.26803 3.60512 -1.67868)
(1.99144 3.65218 -0.428126)
(2.59258 4.08394 0.00311795)
(3.85632 4.38991 0.773819)
(2.83683 3.07058 -0.361712)
(3.3078 5.36658 0.00216633)
(3.61602 5.52061 0.0895579)
(3.14422 3.18956 -0.099306)
(4.02481 4.13035 1.02365)
(4.90205 5.5126 1.02358)
(5.02901 5.54866 0.801966)
(4.48922 7.31555 -1.46856)
(2.55695 6.16157 -2.44801)
(4.2599 6.35137 1.15057)
(5.16238 4.88314 3.48106)
(3.15367 2.15231 5.28003)
(2.26118 1.1597 4.62274)
(1.22762 0.881049 4.73247)
(-0.427806 1.25414 5.39439)
(-1.6144 1.26572 5.65183)
(-2.15454 1.12853 6.06027)
(-2.29665 0.971271 6.69056)
(-2.24298 0.80435 7.293)
(-2.13631 0.660868 7.75204)
(-2.02608 0.55968 8.09354)
(-1.92247 0.486515 8.35909)
(-1.82361 0.430065 8.57105)
(-1.72583 0.38254 8.74138)
(-1.63195 0.344236 8.87864)
(-1.54479 0.313678 8.9922)
(-1.46434 0.28921 9.08736)
(-1.3896 0.269089 9.16764)
(-1.32033 0.252285 9.23583)
(-1.2559 0.237784 9.2944)
(-1.19593 0.225339 9.34496)
(-1.13971 0.214739 9.38851)
(-1.08656 0.205934 9.42573)
(-1.03521 0.198811 9.45678)
(-0.983433 0.193487 9.4807)
(-0.92833 0.190138 9.49434)
(-0.862364 0.191168 9.49382)
(-0.776691 0.200376 9.47115)
(-0.656808 0.224861 9.42543)
(-0.468232 0.26417 9.32193)
(-0.225682 0.29394 9.17286)
(0.0243955 0.291604 9.04187)
(0.317963 0.278067 8.82547)
(0.579727 0.291546 8.55799)
(0.960936 -0.0372798 9.20189)
(1.43557 -0.0125014 8.94466)
(1.87156 0.0773723 8.31239)
(2.18665 0.125886 7.72743)
(2.94338 -0.0110666 8.15975)
(3.69414 0.000165013 8.46878)
(4.78592 -0.0690155 8.04826)
(5.31249 -0.255864 8.15682)
(6.11434 -0.152168 6.8695)
(7.08032 0.0340624 5.21839)
(7.55825 0.358236 3.19467)
(7.35435 0.951639 0.854095)
(6.85727 1.16559 -1.71539)
(6.35907 0.761978 -3.51886)
(5.55185 0.48139 -3.54334)
(7.06922 0.27794 -1.08142)
(5.5496 0.410295 -3.68181)
(5.49501 -0.316721 -3.58151)
(5.50666 -0.405529 -3.42932)
(5.52257 -0.739688 -3.96572)
(4.75899 -0.397774 -5.32344)
(4.9691 -0.478874 -5.44584)
(4.20801 -0.318798 -6.38421)
(3.74381 0.0571782 -7.05416)
(2.86907 -0.0161088 -7.65867)
(3.52708 0.186738 -7.42962)
(4.15757 0.0433007 -6.8975)
(4.4981 -0.247133 -6.23402)
(4.51539 0.068717 -6.23275)
(4.3835 0.2091 -6.46795)
(4.31711 0.0614233 -6.84094)
(4.19854 0.280084 -6.92827)
(3.44965 0.230738 -7.52335)
(3.49717 0.265001 -7.71478)
(3.87517 -0.0247125 -8.11733)
(4.21892 0.0259361 -7.14632)
(4.19627 -0.189859 -7.28705)
(4.2914 -0.171775 -6.99775)
(4.35788 -0.269736 -6.64232)
(4.50533 -0.112172 -6.40584)
(4.98403 0.118329 -5.7078)
(5.51082 -0.125769 -4.87098)
(6.11009 0.1833 -4.01341)
(6.76983 0.465902 -2.72804)
(7.27133 0.642404 -1.18498)
(7.5132 0.588984 0.516817)
(7.37213 0.357148 2.10733)
(6.95095 0.154637 3.56515)
(6.31627 0.0510314 4.85173)
(5.42115 0.0871194 5.91295)
(4.42582 0.193611 6.4826)
(3.65526 0.358768 5.45336)
(3.36095 0.360336 6.00043)
(3.5186 0.515671 5.19615)
(3.15255 0.191224 4.75306)
(2.99303 0.149258 4.87524)
(2.31496 0.0426795 5.13428)
(2.31125 -0.00820072 5.48551)
(2.00412 0.107239 5.57313)
(1.36988 -0.0781922 5.39853)
(1.26064 0.0199511 5.73409)
(1.1491 -0.026892 5.91731)
(0.957201 0.0409994 6.00192)
(0.793558 0.0580377 6.18387)
(0.595215 0.0786432 6.07105)
(0.319608 -0.234565 5.60974)
(0.321629 -0.234988 5.73294)
(0.305372 -0.227215 5.7172)
(0.288797 -0.215123 5.70774)
(0.277416 -0.205696 5.68516)
(0.270039 -0.196872 5.64719)
(0.267531 -0.191394 5.57561)
(0.268408 -0.186754 5.47667)
(0.271561 -0.181141 5.35752)
(0.276196 -0.175609 5.22073)
(0.280474 -0.16885 5.06868)
(0.284937 -0.162464 4.90214)
(0.289363 -0.154973 4.71855)
(0.293138 -0.147122 4.51543)
(0.296142 -0.13915 4.29038)
(0.298698 -0.131271 4.04048)
(0.301579 -0.125834 3.76035)
(0.304807 -0.12408 3.44412)
(0.308629 -0.127857 3.08209)
(0.312244 -0.138646 2.65256)
(0.310544 -0.159139 2.11304)
(0.294688 -0.187745 1.39555)
(0.248756 -0.226191 0.412326)
(0.331047 -0.309471 -1.27067)
(0.420501 -0.609979 -3.5066)
(0.0180786 -0.5318 -4.7578)
(0.143077 -0.115165 -4.49889)
(-0.173903 -0.274592 -3.71197)
(0.471528 -0.668647 -2.36474)
(-0.127838 0.0841483 -4.05461)
(-1.2326 0.780581 0.658393)
(-1.04113 1.13977 1.81414)
(-0.972306 1.07567 2.92455)
(-0.871237 0.989161 3.75991)
(-0.779166 0.930869 4.3987)
(-0.701002 0.884105 4.89515)
(-0.632436 0.839889 5.29147)
(-0.570267 0.798273 5.61901)
(-0.514203 0.759627 5.89774)
(-0.463654 0.723824 6.1386)
(-0.418025 0.690501 6.34844)
(-0.376848 0.659772 6.53299)
(-0.340386 0.631681 6.69681)
(-0.307965 0.605744 6.84284)
(-0.278347 0.581202 6.9739)
(-0.251071 0.557471 7.09177)
(-0.225392 0.534624 7.19639)
(-0.199724 0.511937 7.28607)
(-0.171685 0.489673 7.35743)
(-0.137397 0.467372 7.40177)
(-0.0911944 0.448899 7.41176)
(-0.0292396 0.432284 7.36598)
(0.043842 0.418544 7.24094)
(0.113973 0.406593 7.03859)
(0.212719 0.361093 6.73192)
(0.894042 0.419534 5.86221)
(0.698654 -0.717596 6.57111)
(0.346451 -0.581411 7.01478)
(0.124202 -0.605403 6.69749)
(0.0981151 -0.542622 6.90003)
(0.0463997 -0.513355 6.97524)
(0.00043157 -0.507853 7.00758)
(-0.0318774 -0.514212 6.99511)
(-0.052289 -0.527893 6.94732)
(-0.064596 -0.546137 6.86804)
(-0.073317 -0.564558 6.7628)
(-0.0808119 -0.582238 6.63912)
(-0.0878013 -0.599995 6.49944)
(-0.0962233 -0.618592 6.34505)
(-0.105391 -0.638792 6.17577)
(-0.116242 -0.660558 5.98861)
(-0.128607 -0.683724 5.78091)
(-0.142586 -0.707782 5.54962)
(-0.158417 -0.733283 5.29201)
(-0.175751 -0.761108 5.0029)
(-0.195152 -0.792104 4.67566)
(-0.217428 -0.827315 4.29979)
(-0.244386 -0.868489 3.85424)
(-0.27678 -0.919257 3.30073)
(-0.315444 -0.992439 2.58455)
(-0.356945 -1.11647 1.65654)
(-0.437507 -1.27139 0.489746)
(-0.7012 -0.702359 -1.85486)
(-0.815719 -0.573521 -4.068)
(-0.503697 0.0438976 -3.36809)
(-0.98438 0.325752 -2.96236)
(-0.474022 0.519127 -2.21889)
(-0.0624458 1.40043 -4.17085)
(6.44816 -0.304957 2.52194)
(10.4722 -0.403804 1.27674)
(8.51668 -3.28682 4.70633)
(6.90394 -4.80355 0.777402)
(5.02873 -3.9385 -2.62053)
(2.90571 -2.39558 -3.4409)
(8.0687 -2.52893 -2.17966)
(8.1837 -1.05847 -1.27329)
(0.962004 -1.14132 -3.43993)
(0.854609 1.11425 -3.27833)
(0.89491 0.998742 -3.32429)
(0.156465 0.601907 -2.71538)
(-0.0117124 0.698249 -2.51948)
(-0.0737651 1.20645 -2.90383)
(-0.371566 1.82213 -3.94343)
(2.01934 3.51112 -3.46406)
(5.06865 3.92148 -2.62197)
(2.93355 2.35362 -3.43988)
(0.952396 1.58867 -3.68773)
(1.56725 0.796246 -1.96906)
(1.22285 0.518247 -1.66834)
(0.609966 0.362393 -1.6644)
(0.937788 0.446301 -1.74804)
(0.921245 0.8717 -1.78873)
(1.2055 0.645574 -1.96354)
(1.16916 0.317456 -1.982)
(1.51955 0.0582611 -2.44206)
(0.4177 0.144678 -1.39379)
(0.198884 0.323331 -2.53188)
(0.25323 0.0834979 -1.55083)
(0.12986 0.262137 -1.52457)
(-0.0813396 0.41162 -1.40856)
(-0.202592 0.376386 -1.34441)
(-0.255847 0.362325 -1.20266)
(-0.315573 0.711034 -1.77633)
(-0.99134 1.29966 -3.48504)
(-0.580482 1.48854 -3.464)
(-0.0964697 0.637959 -1.93706)
(0.212739 0.664156 -1.49248)
(0.0369892 0.413689 -1.06572)
(-6.10592e-05 0.251364 -0.830779)
(-0.0540892 0.223035 -1.0193)
(-0.124065 0.230864 -0.933253)
(-0.175394 0.241769 -0.839545)
(-0.24066 0.197255 -0.767162)
(-0.264446 0.185989 -0.686253)
(-0.379056 0.256248 -0.902718)
(-0.535507 0.443991 -1.18852)
(-0.595134 0.299523 -0.990014)
(-0.869833 0.497612 -1.44284)
(-1.62493 0.874386 -1.96048)
(-2.60808 1.78703 -2.229)
(-1.96771 2.14769 -2.20807)
(-2.04183 2.69989 -1.8464)
(-1.49908 5.12708 -0.111532)
(-0.295595 5.61108 0.466644)
(1.77921 5.78954 2.50782)
(1.07031 6.77869 1.22566)
(3.00042 4.1499 3.69276)
(2.6968 3.71967 4.67354)
(2.74864 3.434 1.63487)
(1.54574 4.59326 1.53773)
(2.43731 4.06082 2.04021)
(3.06748 3.60663 2.75125)
(3.15461 4.549 2.64251)
(3.61033 2.30902 3.86629)
(4.07866 1.48968 4.73546)
(7.11248 3.08566 3.82148)
(5.43138 0.288907 6.21606)
(5.33601 0.560974 6.29709)
(6.87588 2.57998 4.65295)
(5.63073 1.32751 5.5486)
(4.79423 0.23802 6.1875)
(4.33502 0.603865 5.792)
(5.61592 1.6831 5.36934)
(6.10686 0.833795 5.56178)
(6.89391 0.544331 7.13477)
(6.10275 0.343454 8.32657)
(4.79351 0.499308 8.37093)
(2.9364 0.389496 7.12932)
(1.54649 0.345798 5.6183)
(0.801895 0.0486217 4.23658)
(0.377622 -0.159798 3.47803)
(0.369061 -0.305199 2.85226)
(0.498781 -0.308633 2.56398)
(0.630056 -0.194633 2.59685)
(0.726528 -0.063802 2.8102)
(0.791099 0.0414618 3.10146)
(0.834199 0.116458 3.42035)
(0.864342 0.169345 3.73939)
(0.884657 0.207812 4.04269)
(0.896446 0.23696 4.32269)
(0.901787 0.260064 4.57859)
(0.90245 0.279112 4.81201)
(0.899736 0.294582 5.02449)
(0.893104 0.306149 5.21777)
(0.883656 0.313975 5.39392)
(0.873454 0.318566 5.554)
(0.865578 0.320327 5.69809)
(0.863694 0.319701 5.82533)
(0.872822 0.318897 5.93393)
(0.900281 0.318303 6.02172)
(0.952827 0.317974 6.08513)
(1.03713 0.32 6.11812)
(1.15972 0.318717 6.11448)
(1.32252 0.319223 6.03135)
(1.59681 0.348355 6.12142)
(1.8322 0.339254 6.04537)
(2.02792 0.334428 6.03947)
(2.22491 0.521977 5.73721)
(1.35275 0.468738 6.91536)
(1.58458 0.396876 6.52067)
(2.49365 0.564098 5.261)
(2.4776 -0.703344 5.80478)
(1.92312 -0.617637 6.32241)
(1.25116 -0.695008 6.33285)
(1.10086 -0.648613 6.69422)
(0.93078 -0.546055 6.89733)
(0.713957 -0.562176 6.99781)
(0.540206 -0.54676 7.17699)
(0.146958 -0.382646 8.36869)
(-0.0743229 -0.405538 8.46968)
(-0.310634 -0.373518 8.7486)
(-0.47615 -0.35833 8.91889)
(-0.584677 -0.364748 8.99206)
(-0.661496 -0.380576 9.00702)
(-0.717051 -0.400107 8.99626)
(-0.759136 -0.420454 8.96495)
(-0.796113 -0.440946 8.91854)
(-0.831507 -0.462346 8.86235)
(-0.867085 -0.484726 8.7972)
(-0.904367 -0.508356 8.72329)
(-0.943462 -0.533351 8.63978)
(-0.985323 -0.560208 8.54368)
(-1.03179 -0.588687 8.43232)
(-1.08446 -0.619284 8.30496)
(-1.14311 -0.652886 8.15944)
(-1.20805 -0.690294 7.99054)
(-1.2796 -0.731476 7.79153)
(-1.35715 -0.776014 7.5525)
(-1.43852 -0.821886 7.25804)
(-1.52518 -0.872781 6.88689)
(-1.61745 -0.935936 6.4045)
(-1.70839 -1.00666 5.75039)
(-1.7601 -1.02565 4.83739)
(-1.71495 -0.929033 3.66084)
(-1.34409 -0.541845 2.47486)
(-0.109433 0.592952 -0.194584)
(2.63105 0.636598 1.46877)
(4.84666 -1.23214 3.02121)
(7.43911 -1.90287 5.11138)
(5.26259 -6.82208 1.03296)
(1.70534 -6.49859 -2.41436)
(1.14154 -3.51169 -4.50699)
(1.95193 -3.52391 -3.42406)
(-0.367874 -1.84049 -3.92314)
(-0.0761633 -1.25351 -2.91166)
(0.950127 -1.64649 -3.68332)
(0.897111 -1.07335 -3.33977)
(0.146099 -0.651454 -2.73146)
(0.20307 -0.331038 -2.61814)
(0.251816 -0.103305 -1.56424)
(0.0946075 -0.0694241 -1.10836)
(0.102085 0.0432994 -1.10017)
(0.040442 0.142552 -1.08737)
(0.0321064 0.0847994 -0.775186)
(-0.0199509 0.152849 -0.744311)
(-0.0716209 0.16847 -0.713918)
(-0.118145 0.191013 -0.654683)
(-0.182859 0.160779 -0.614787)
(-0.224256 0.148214 -0.563099)
(-0.275693 0.0964338 -0.523334)
(-0.316013 0.138122 -0.614289)
(-0.418852 0.177658 -0.764639)
(-0.412509 0.0987648 -0.668167)
(-0.543862 0.168387 -0.841016)
(-0.752634 0.270581 -1.05613)
(-1.17745 0.43363 -1.44216)
(-1.35551 0.726216 -1.69677)
(-1.76 0.794448 -2.41396)
(-2.05182 1.69307 -2.55809)
(-2.0883 1.6134 -2.22356)
(-2.20127 2.27303 -1.74903)
(-2.54414 2.63488 -1.21592)
(-2.29373 3.28594 -0.815507)
(-1.90695 2.82173 -1.29536)
(-1.37131 4.05986 -0.604641)
(-0.822313 4.06546 2.55967)
(0.25935 4.66966 2.84946)
(1.74629 4.50306 3.71061)
(2.17587 3.25509 5.06466)
(1.02757 2.03633 6.3916)
(0.300557 1.43441 7.05701)
(-0.654822 1.25578 7.76977)
(-1.75439 1.01 8.23556)
(-2.35704 0.682009 8.28864)
(-2.48986 0.386534 8.35533)
(-2.40292 0.15596 8.60085)
(-2.2204 -0.0330536 8.88218)
(-2.04673 -0.164999 9.09468)
(-1.88962 -0.243561 9.25393)
(-1.76158 -0.288656 9.38307)
(-1.65152 -0.314391 9.4907)
(-1.55106 -0.329384 9.57632)
(-1.4602 -0.335241 9.64007)
(-1.38056 -0.333569 9.68889)
(-1.31051 -0.326897 9.72799)
(-1.24776 -0.317718 9.75919)
(-1.1908 -0.307929 9.78362)
(-1.13838 -0.29896 9.80244)
(-1.08969 -0.290029 9.81667)
(-1.04384 -0.280851 9.82695)
(-1.00006 -0.271281 9.83377)
(-0.957242 -0.261332 9.83781)
(-0.913438 -0.250895 9.83946)
(-0.865021 -0.239658 9.83875)
(-0.804109 -0.226931 9.83555)
(-0.721431 -0.211635 9.82901)
(-0.598748 -0.191699 9.81884)
(-0.424506 -0.168732 9.80036)
(-0.20908 -0.136421 9.77371)
(0.0338478 -0.106339 9.72982)
(0.497019 -0.0892329 9.55017)
(0.510521 -0.171734 10.2851)
(1.11351 -0.101379 9.96924)
(1.78933 -0.0383392 9.57923)
(2.39588 0.00606855 8.97616)
(3.00874 0.00624004 9.41744)
(3.49167 -0.146081 9.62324)
(4.25291 -0.190513 9.33168)
(4.02807 -0.65771 9.50176)
(5.04106 -0.458415 8.69456)
(5.71587 -0.268201 8.28341)
(6.18856 -0.581248 6.94704)
(6.80566 -0.457819 6.19667)
(7.54012 -0.469803 4.96351)
(8.01697 -0.47367 3.533)
(8.13961 -0.420687 1.86131)
(7.92736 -0.124918 -0.124382)
(7.89205 0.275918 -0.0458629)
(7.02672 -0.145818 -1.00598)
(5.72078 0.708446 -4.86063)
(7.20466 0.299839 -4.80286)
(6.68648 0.0193054 -4.03895)
(6.6196 -0.248692 -3.77915)
(6.5814 -0.429817 -2.92659)
(6.69189 -0.437518 -1.58661)
(6.41956 -0.512899 -0.885386)
(6.34738 -0.0502961 -1.1743)
(6.36575 0.130549 -0.13584)
(6.43147 0.215883 0.409542)
(6.43537 0.271121 0.988912)
(6.25709 0.34475 1.58383)
(5.95757 0.243215 1.94681)
(5.87165 0.274276 2.17913)
(5.36583 0.188778 2.74237)
(4.87546 0.229532 3.49224)
(4.6434 0.213643 3.62255)
(3.99739 0.229799 4.1874)
(3.7965 0.211989 4.32751)
(3.82346 -0.711585 4.84114)
(3.18961 -0.820986 5.38102)
(2.98562 -0.675914 5.49649)
(2.29433 -0.716203 5.89952)
(2.24722 -0.570089 6.2663)
(1.87264 -0.427877 7.1595)
(1.7038 -0.389587 7.62253)
(1.3955 -0.397063 8.04141)
(0.922379 -0.492847 8.23504)
(0.598265 -0.362752 7.93611)
(0.389934 -0.366301 8.18237)
(0.174614 -0.263808 9.37565)
(-0.110986 -0.255821 9.57081)
(-0.349453 -0.240688 9.66947)
(-0.59273 -0.198484 9.78408)
(-0.766859 -0.154746 9.87113)
(-0.879556 -0.1306 9.92049)
(-0.96182 -0.121574 9.94635)
(-1.02626 -0.12109 9.95427)
(-1.08098 -0.12514 9.95145)
(-1.13324 -0.131467 9.94099)
(-1.18601 -0.13912 9.92525)
(-1.24094 -0.14777 9.90467)
(-1.29934 -0.157605 9.87914)
(-1.36154 -0.168857 9.84807)
(-1.42805 -0.182251 9.8102)
(-1.50001 -0.198901 9.76368)
(-1.57829 -0.220087 9.70663)
(-1.66292 -0.246762 9.63703)
(-1.75482 -0.280963 9.55124)
(-1.85471 -0.324522 9.44316)
(-1.9601 -0.378725 9.30305)
(-2.06899 -0.443541 9.12275)
(-2.18569 -0.527317 8.89299)
(-2.31685 -0.644844 8.5889)
(-2.45338 -0.806692 8.15466)
(-2.56226 -0.989949 7.53421)
(-2.52055 -1.15702 6.79866)
(-2.12517 -1.30699 6.15836)
(-1.08065 -1.3308 5.57626)
(0.650827 -1.02921 4.51572)
(2.06505 -1.07175 4.20319)
(3.58936 -1.70302 5.7012)
(6.58553 -5.65894 2.15492)
(3.35306 -5.40883 4.70149)
(2.09587 -7.16629 0.778845)
(3.19536 -7.0487 -0.797893)
(-0.589764 -4.87191 -3.1454)
(-0.910363 -2.90719 -3.19969)
(-1.47506 -1.56975 -2.46684)
(-0.983547 -0.734265 -1.90024)
(-1.18192 -1.04084 -2.48813)
(-1.02693 -1.28792 -3.43933)
(-0.599505 -1.4556 -3.42337)
(-0.129632 -0.673162 -1.93216)
(-0.023819 -0.738743 -2.52814)
(-0.101253 -0.440435 -1.40432)
(0.111218 -0.301715 -1.52571)
(0.0210746 -0.17344 -1.08196)
(0.0185972 -0.1108 -0.766682)
(0.0541741 -0.0428557 -0.786873)
(0.0597573 0.0206274 -0.787721)
(0.0326951 0.0125231 -0.625509)
(0.0164783 0.0529701 -0.619149)
(-0.0138288 0.103328 -0.602842)
(-0.05151 0.119085 -0.592063)
(-0.0943591 0.142876 -0.550366)
(-0.150136 0.120077 -0.529167)
(-0.191008 0.105705 -0.485349)
(-0.23598 0.0603715 -0.446978)
(-0.255428 0.00324319 -0.406453)
(-0.303832 0.030884 -0.47828)
(-0.349992 0.0713893 -0.554977)
(-0.348573 -0.0093183 -0.509474)
(-0.396659 0.0315519 -0.602516)
(-0.481111 0.0874763 -0.720076)
(-0.626109 0.154537 -0.87884)
(-0.823782 0.3037 -1.15284)
(-1.28603 0.460117 -1.5194)
(-1.80783 0.747416 -2.03341)
(-2.63996 1.37681 -1.79885)
(-2.93377 2.04492 -1.25337)
(-2.85917 2.55669 -0.538307)
(-1.50193 2.2808 0.0449052)
(-1.09956 1.76563 0.054224)
(-1.05363 1.33133 0.0607646)
(-0.979368 0.985395 0.0830611)
(-0.945191 0.864197 0.0429216)
(-0.834039 0.790287 -0.239119)
(-0.805541 0.948112 -0.276069)
(-0.818221 1.08395 -0.227638)
(-0.845417 1.06841 -0.24047)
(-0.984928 1.33243 0.0355886)
(-0.957426 1.49751 0.050282)
(-0.934074 1.89556 0.21828)
(-0.357848 2.08911 0.520549)
(-0.588406 2.74711 1.25136)
(-2.07411 2.90299 1.08259)
(-1.74653 3.8717 0.768003)
(-1.29782 2.93438 2.86968)
(-0.275317 2.10901 4.41666)
(0.265319 1.56355 5.8207)
(-0.426204 0.628302 7.21874)
(-1.13344 -0.198757 8.23927)
(-1.64421 -0.735105 9.11295)
(-2.01765 -0.991398 9.66055)
(-2.15071 -1.09453 9.88946)
(-2.06738 -1.09186 10.0107)
(-1.90772 -1.05118 10.1803)
(-1.73742 -1.02974 10.3354)
(-1.58303 -0.991814 10.4227)
(-1.43883 -0.944036 10.4735)
(-1.32732 -0.892714 10.5021)
(-1.23721 -0.844184 10.526)
(-1.15757 -0.800964 10.538)
(-1.08888 -0.761415 10.5326)
(-1.03049 -0.723698 10.5157)
(-0.980357 -0.687549 10.4928)
(-0.93645 -0.653187 10.4651)
(-0.89714 -0.6203 10.4332)
(-0.861442 -0.589133 10.398)
(-0.828494 -0.559381 10.3605)
(-0.797815 -0.530966 10.3216)
(-0.768694 -0.503566 10.2821)
(-0.740345 -0.476906 10.2434)
(-0.711267 -0.450473 10.2071)
(-0.678666 -0.423535 10.1761)
(-0.636271 -0.394996 10.1522)