/*--------------------------------*- C++ -*----------------------------------*\
  =========                 |
  \\      /  F ield         | OpenFOAM: The Open Source CFD Toolbox
   \\    /   O peration     | Website:  https://openfoam.org
    \\  /    A nd           | Version:  7
     \\/     M anipulation  |
\*---------------------------------------------------------------------------*/
FoamFile
{
    version     2.0;
    format      ascii;
    class       volScalarField;
    location    "19";
    object      alpha.water;
}
// * * * * * * * * * * * * * * * * * * * * * * * * * * * * * * * * * * * * * //

dimensions      [0 0 0 0 0 0 0];

internalField   nonuniform List<scalar> 
15142
(
1.31218e-05
1.54101e-06
3.68292e-05
3.22193e-06
7.47781e-10
7.89807e-09
1.02375e-07
1.11497e-06
3.43157e-05
0.000199207
0.00035529
0.000218901
5.85003e-05
6.19935e-06
2.14636e-07
4.66436e-09
4.42127e-11
7.3579e-16
3.24109e-15
2.81397e-15
5.72364e-16
3.44565e-14
9.72597e-09
1.05885e-07
4.44527e-06
4.32453e-05
0.000165347
0.000258412
0.000349946
0.00052454
0.000523739
0.000596575
0.000605643
0.000605643
0.000582247
0.00090088
0.00146705
0.00231599
0.00321085
0.00435675
0.00825182
0.0127793
0.0184527
0.0395683
0.0664877
0.103525
0.203592
0.328275
0.462117
0.592561
0.717957
0.730951
0.673386
0.504374
0.30088
0.229386
0.383348
0.36219
0.314224
0.250407
0.334157
0.356856
0.279583
0.27517
0.282461
0.186201
0.0881817
0.0448316
0.0312405
0.0225217
0.0112304
0.00498006
0.00541566
0.00958066
0.0150398
0.027044
0.0478074
0.107475
0.201671
0.240989
0.369061
0.550669
0.628787
0.76357
0.743852
0.783071
0.864838
0.86993
0.86839
0.868546
0.868141
0.866882
0.865159
0.863389
0.86174
0.836035
0.672176
0.605359
0.504557
0.407437
0.367556
0.259745
0.180819
0.123773
0.0882537
0.0998817
0.0367963
0.0210467
0.012463
0.0089707
0.0175455
0.0292151
0.0532588
0.0928939
0.139164
0.225055
0.279926
0.19373
0.196732
0.206232
0.220355
0.272474
0.196755
0.237972
0.238646
0.190619
0.249186
0.203965
0.121056
0.106722
0.115692
0.136406
0.175232
0.174335
0.245645
0.312107
0.36719
0.424166
0.440901
0.365866
0.328395
0.250701
0.123278
0.082249
0.0498211
0.0228178
0.0109925
0.00575436
0.00443129
0.00345624
0.00177606
0.00118095
0.00269483
0.00570909
0.0112115
0.00763475
0.00393469
0.00239524
0.00169967
0.000983562
0.00052513
0.000173104
4.7782e-06
6.70184e-05
4.29105e-05
0.000923846
0.000936958
0.00272331
0.00547768
0.0187412
0.0278779
0.0137506
0.00848539
0.00445032
0.00201948
0.00103019
0.00147214
0.000805032
0.000172502
0.00106927
0.00226449
0.005186
0.0191817
0.019667
0.0120224
0.0379194
0.0689613
0.0789589
0.0566755
0.122863
0.21727
0.17435
0.0817417
0.151098
0.255266
0.203013
0.104492
0.169904
0.155647
0.0774241
0.127592
0.117494
0.0635299
0.101604
0.0972696
0.0559224
0.105603
0.117885
0.0593692
0.0299638
0.071676
0.105397
0.0516125
0.0308508
0.0795816
0.10572
0.0612341
0.0440066
0.0954117
0.138398
0.101207
0.0702938
0.037809
0.010387
0.0162937
0.0201337
0.00788381
0.0089903
0.0109454
0.00669782
0.00372713
0.00317458
0.00292368
0.000800233
0.00289723
0.0130322
0.0233256
0.0336096
0.0128127
0.0161561
0.0228243
0.00731263
0.00999484
0.0169704
0.00631142
0.0116279
0.0238739
0.00930294
0.024816
0.0107125
0.0289195
0.0144919
0.0380184
0.0218526
0.0547513
0.036785
0.0228742
0.0144385
0.0134439
0.0102389
0.00929356
0.00673066
0.00631662
0.00515288
0.0058309
0.00480642
0.00361636
0.0045763
0.00364687
0.00727651
0.00801446
0.0162016
0.0249915
0.0345646
0.0529982
0.0403613
0.0299123
0.018905
0.0226281
0.0272533
0.0263227
0.0116758
0.0135786
0.012157
0.00898561
0.00707162
0.00508207
0.00399872
0.00323851
0.00117974
0.00155651
0.00154346
0.00114124
0.000645602
3.30727e-05
1.87191e-05
9.26779e-05
1.90094e-05
3.99955e-05
0.00026073
0.00347167
0.0068498
0.0131034
0.0222005
0.0235
0.0191746
0.06063
0.110752
0.154355
0.0873865
0.0428673
0.00675421
0.0109008
0.0158674
0.00404366
0.000910926
0.000385286
0.000116758
3.21747e-05
8.37849e-08
1.60552e-09
1.8699e-09
3.26616e-09
4.81961e-10
5.88452e-11
4.38805e-08
1.24166e-06
2.59921e-05
0.000223289
8.68253e-05
1.84264e-06
1.16754e-06
5.41625e-08
2.10675e-07
1.60234e-06
2.10682e-05
0.000182599
0.000278089
0.000345541
0.000270362
9.32246e-05
7.16672e-06
1.06722e-07
1.94606e-09
2.28513e-11
5.73977e-14
2.91944e-13
8.55778e-12
5.03732e-11
8.6301e-13
1.07762e-08
8.69676e-08
4.33966e-06
6.55605e-05
0.000153893
5.6035e-05
4.25445e-05
7.12953e-05
0.000215254
0.000414446
0.000605643
0.000454287
0.000169248
0.000247736
0.000301644
0.000443944
0.00079088
0.00128117
0.00280006
0.00503702
0.00750405
0.0174879
0.0337423
0.0590792
0.128115
0.235634
0.395089
0.567991
0.748236
0.748236
0.60563
0.37024
0.204437
0.204312
0.397332
0.396858
0.397332
0.384979
0.384703
0.38442
0.383945
0.382555
0.363803
0.231037
0.0902837
0.0351069
0.0174393
0.010743
0.00469818
0.00198746
0.00198519
0.0039546
0.00684091
0.0126716
0.0234896
0.08355
0.223338
0.332885
0.311531
0.604886
0.732883
0.777359
0.792897
0.858902
0.87823
0.87823
0.87823
0.878231
0.878231
0.878231
0.87823
0.87823
0.87823
0.872331
0.735203
0.536039
0.405257
0.406552
0.245026
0.130458
0.0930613
0.0450361
0.044935
0.0713597
0.0353716
0.0185317
0.0071621
0.00507419
0.00810351
0.0220643
0.0588161
0.126434
0.224498
0.330917
0.331312
0.330917
0.133003
0.107889
0.100484
0.133548
0.209889
0.127742
0.147751
0.242699
0.280322
0.281591
0.224402
0.187946
0.194546
0.194837
0.27361
0.274629
0.448204
0.448204
0.448204
0.448204
0.448204
0.445414
0.393805
0.317856
0.106995
0.0502665
0.0232935
0.0111892
0.0054795
0.00286478
0.00242672
0.00155068
0.000786655
0.000787931
0.00129847
0.00223999
0.00473451
0.00287083
0.00135303
0.000765131
0.000499482
0.000652654
0.000848205
0.000430752
0.000133264
8.81132e-06
4.43986e-06
0.000230512
0.00070202
0.000787566
0.000407967
0.000241184
0.000152004
9.79336e-05
4.20375e-05
2.67189e-05
5.67893e-05
0.00012008
0.000285896
0.000304041
0.000317911
0.000141421
7.47507e-05
8.30058e-05
3.608e-05
3.1385e-06
3.24602e-08
4.87643e-10
8.22453e-12
1.27936e-12
5.92778e-12
1.63296e-10
5.7057e-10
3.4254e-12
7.43378e-09
5.90679e-08
3.15799e-06
4.36671e-05
4.48872e-05
2.04295e-05
1.89775e-05
3.9599e-05
2.54737e-05
5.7047e-05
5.98943e-05
0.000120008
0.00032454
0.000116257
7.92591e-05
0.00012468
0.000185886
0.000137587
0.000137587
0.000466267
0.0012423
0.0025549
0.00406435
0.00956306
0.0197363
0.0390613
0.087627
0.153792
0.293171
0.438025
0.748236
0.748236
0.465876
0.286325
0.204565
0.205703
0.366382
0.248006
0.161558
0.250944
0.325849
0.374848
0.366374
0.346914
0.282113
0.233205
0.16647
0.0821907
0.0270051
0.00953675
0.0100082
0.00735579
0.00324449
0.00198511
0.00198277
0.00215977
0.00198042
0.00188232
0.0016303
0.00163213
0.00202997
0.0026396
0.00337496
0.00339695
0.00164443
0.000651259
0.000218793
1.0587e-05
1.90996e-07
3.97785e-09
7.82586e-11
6.8003e-15
6.19911e-15
4.37904e-14
2.39318e-12
3.8434e-06
2.39838e-05
1.66383e-06
0.000139678
0.000168441
0.00180932
0.00185274
0.0071373
0.00648376
0.00258316
0.00171206
1.37936e-05
0.000438828
3.5181e-05
0.00286151
0.004293
0.00416157
0.0048927
0.0117618
0.0242289
0.0810405
0.251786
0.251788
0.0844871
0.0808021
0.0491167
0.0501863
0.0449619
0.0425035
0.0419989
0.0411717
0.0470785
0.0496738
0.0753375
0.0765087
0.215573
0.20401
0.189112
0.134477
0.032273
0.0232608
0.00820992
0.00173134
3.94711e-05
0.00109596
0.0216542
0.0629832
0.00690344
2.72094e-05
2.72157e-05
2.84502e-05
3.75645e-05
4.79798e-05
6.82262e-05
8.87055e-05
8.86924e-05
7.09872e-05
4.73942e-05
7.81348e-05
1.35647e-05
3.13011e-05
2.64618e-06
6.77294e-06
4.72105e-07
5.56486e-09
2.85342e-10
6.78748e-11
1.17084e-11
3.80277e-10
6.02525e-10
4.39202e-10
2.83876e-09
2.71766e-07
8.68569e-07
1.48615e-05
2.46679e-05
1.5245e-05
6.53682e-06
2.42741e-05
5.34645e-05
5.60729e-05
5.62581e-05
4.26666e-05
2.36692e-05
9.68515e-05
0.000164889
0.000158231
0.000150682
0.000278909
0.000543083
0.000251505
0.00223739
0.00744418
0.0066076
0.0258401
0.0940021
0.147417
0.300924
0.485902
0.678835
0.596591
0.367061
0.238392
0.204668
0.234956
0.191477
0.16158
0.161558
0.222224
0.277328
0.244364
0.275964
0.173005
0.134044
0.0946235
0.0250646
0.00536925
0.00163499
0.00285612
0.00228987
0.00102463
0.00250056
0.00852907
0.00525847
0.0143769
0.0301922
0.0563359
0.0781001
0.155912
0.332772
0.243128
0.262705
0.500894
0.678113
0.681901
0.715957
0.848717
0.87823
0.87823
0.878231
0.878231
0.878231
0.878231
0.878231
0.87823
0.87823
0.848683
0.743303
0.517642
0.518877
0.524795
0.242858
0.224892
0.137418
0.0488305
0.0450898
0.0474032
0.052486
0.0188975
0.00927429
0.00529106
0.00505369
0.00544656
0.00540892
0.00794216
0.00507287
0.00578491
0.00714382
0.00505123
0.00908447
0.00922102
0.00958766
0.00478765
0.0041539
0.00798544
0.010498
0.053422
0.218463
0.345306
0.17332
0.180583
0.158563
0.0780362
0.0663642
0.0669334
0.0873787
0.0894252
0.13678
0.0686098
0.0733311
0.109205
0.111693
0.160342
0.169355
0.230629
0.253267
0.421059
0.449416
0.449416
0.449416
0.449416
0.276088
0.0835431
0.0116387
0.00952952
0.00189445
0.000365589
9.62992e-05
9.73228e-05
0.00024665
0.00460463
0.0158805
0.000784789
7.00023e-05
6.72992e-05
0.000166308
0.000166343
4.84821e-05
8.60915e-05
6.72856e-05
1.3193e-05
5.05791e-06
1.33072e-06
2.27316e-05
2.25349e-05
2.30724e-05
1.32299e-05
1.1179e-05
1.31357e-05
5.7223e-06
2.13673e-06
2.70252e-06
1.11884e-06
3.38397e-07
4.63548e-07
1.7747e-07
1.89119e-08
3.70904e-08
3.68011e-09
1.40118e-09
7.46817e-10
3.37608e-10
1.25739e-09
1.31167e-09
1.60697e-09
1.31052e-09
8.96585e-08
2.76868e-07
2.90956e-06
5.16018e-06
1.11547e-05
8.94381e-06
3.35839e-06
1.01765e-05
4.72142e-05
2.19509e-05
1.0924e-05
4.31018e-05
6.44191e-05
3.34322e-05
2.17203e-05
8.80671e-05
0.000134814
8.00611e-05
0.000122328
7.22667e-05
0.000856573
0.000164476
0.000364756
0.00766781
0.0316407
0.0617317
0.112488
0.285297
0.528552
0.643102
0.643102
0.643102
0.643102
0.482847
0.342261
0.342546
0.213826
0.336176
0.323137
0.322835
0.266479
0.3445
0.344693
0.295417
0.311913
0.311831
0.228635
0.205427
0.231325
0.0886669
0.0193922
0.00426315
0.000961712
0.000727877
0.00286575
0.00909051
0.0291976
0.0254805
0.0514985
0.0587741
0.0998175
0.0772259
0.10211
0.0863483
0.263708
0.165704
0.300885
0.184472
0.374767
0.480984
0.540199
0.627289
0.691463
0.640406
0.560518
0.742242
0.672162
0.767697
0.719779
0.727313
0.79058
0.871848
0.784443
0.878231
0.817297
0.7653
0.705396
0.770621
0.776445
0.718587
0.776912
0.734924
0.853202
0.834964
0.719256
0.852457
0.803719
0.688131
0.695173
0.810311
0.688988
0.685007
0.464889
0.275933
0.146978
0.0848251
0.0576708
0.042225
0.0188326
0.00688125
0.000559646
4.04321e-23
7.27806e-24
7.1431e-22
0.0023437
0.00892475
0.00524164
0.00808232
0.00681778
0.0164733
0.0418357
0.123421
0.317994
0.281959
0.0926495
0.0922403
0.0527492
0.0320339
0.0867364
0.212288
0.224865
0.283969
0.219382
0.242237
0.312766
0.37207
0.508621
0.532663
0.531842
0.518185
0.507171
0.335131
0.174119
0.0720343
0.0682052
0.0214906
0.00471026
0.016702
0.137426
0.419641
0.183559
0.0452791
2.65086e-05
3.27235e-06
5.08075e-06
7.03481e-06
8.04095e-06
8.36094e-06
6.26172e-06
3.65357e-06
2.33999e-06
6.12879e-07
3.97116e-07
8.75604e-08
5.01689e-08
7.46178e-09
2.69564e-09
4.28357e-09
6.21924e-10
1.77294e-09
7.66532e-10
1.29953e-09
1.49163e-09
1.41803e-09
2.70811e-08
6.60919e-08
1.32284e-08
1.72708e-07
4.05009e-07
1.03997e-06
3.508e-06
6.72071e-06
8.55062e-06
3.06872e-06
7.32617e-06
3.59273e-05
2.82732e-05
1.07156e-05
2.53029e-05
1.48547e-05
2.44361e-05
1.26902e-05
3.3008e-05
5.15505e-05
1.55301e-05
1.5529e-05
2.242e-05
2.59563e-05
2.71896e-05
4.89034e-05
0.0102203
0.046125
0.0209508
0.0479068
0.118339
0.120809
0.291012
0.56738
0.514977
0.520458
0.22992
0.310435
0.175338
0.322865
0.110535
0.0580852
0.0991411
0.199393
0.144746
0.281303
0.186684
0.112871
0.214862
0.0863091
0.0715094
0.140246
0.117505
0.102461
0.0692648
0.0265709
0.00820768
0.00163378
0.00158335
0.00472988
0.0138219
0.0396463
0.0634035
0.0246979
0.00901969
0.00319799
0.00358892
0.0203281
0.0629313
0.119561
0.211642
0.359599
0.175477
0.0418209
0.0327331
0.00529133
0.00494654
0.0148386
0.0411276
0.0940797
0.169051
0.115095
0.0581964
0.0254553
0.0365569
0.0492675
0.139697
0.122479
0.139736
0.151451
0.15552
0.0727168
0.100761
0.0855464
0.0400713
0.0792752
0.0703031
0.0402714
0.0392263
0.0200536
0.00975862
0.00616798
0.00674772
0.00879454
0.0114275
0.00943227
0.0079063
0.00311934
6.12703e-12
9.44392e-11
2.67564e-12
2.61904e-13
2.81947e-13
4.50381e-09
4.58952e-10
0.00338064
4.97444e-08
1.7663e-07
8.04933e-08
2.97932e-07
5.47718e-07
7.40953e-07
0.00826718
0.011818
0.0382915
0.0926334
0.202874
0.591117
0.652286
0.604914
0.533718
0.355011
0.397754
0.560726
0.423224
0.380019
0.232355
0.10211
0.0478902
0.0172388
0.00756549
3.97313e-07
5.42877e-07
1.12748e-07
6.01346e-09
2.05857e-09
2.45045e-09
1.5666e-09
1.09101e-09
1.10705e-09
1.17476e-09
1.86401e-09
2.09693e-09
4.1844e-09
9.80412e-09
1.16738e-08
1.57128e-07
3.01459e-07
1.26343e-06
1.75931e-06
3.9198e-06
6.41236e-06
2.45281e-06
4.67009e-06
2.10979e-05
2.47511e-05
9.45329e-06
6.7583e-06
7.53204e-06
5.71578e-06
3.16179e-06
6.62212e-06
1.55409e-05
1.9477e-05
0.000533307
0.00257043
0.0137232
0.0409136
0.0878056
0.172129
0.511844
0.530445
0.599209
0.293471
0.254875
0.0959433
0.170132
0.312778
0.312331
0.122566
0.225458
0.107884
0.21969
0.310817
0.402168
0.349302
0.157696
0.0452263
0.00984156
0.0071262
0.00872747
0.025993
0.0731791
0.15901
0.130834
0.352653
0.231648
0.393497
0.342739
0.549357
0.451924
0.630559
0.699575
0.699023
0.514171
0.508256
0.414061
0.633017
0.651883
0.631107
0.731172
0.742332
0.502065
0.405355
0.54005
0.785072
0.785072
0.73274
0.633823
0.529886
0.785072
0.734321
0.664645
0.618852
0.72372
0.692912
0.722138
0.724004
0.759784
0.785072
0.785072
0.651178
0.412203
0.551855
0.707337
0.843985
0.708396
0.534676
0.415296
0.27091
0.141354
0.0845832
0.0592665
0.0490002
0.0435654
0.0250072
0.0138323
0.00645958
1.52368e-21
6.06587e-21
7.30096e-23
1.65613e-30
1.33484e-30
1.69017e-28
5.16932e-13
0.00303586
0.0115153
0.0176271
0.0325493
0.053724
0.156693
0.176619
0.275994
0.335498
0.459235
0.548499
0.558125
0.377662
0.313881
0.110907
0.0261359
0.0595801
0.219642
0.559491
0.33937
0.159515
0.00164311
2.22239e-07
1.79632e-07
2.82199e-07
4.38859e-07
1.76213e-07
1.18922e-07
1.21348e-07
6.15062e-08
3.69119e-08
3.79873e-08
1.86536e-08
4.30074e-09
2.83227e-09
1.50681e-09
1.24795e-09
8.81028e-10
1.16183e-09
2.16256e-10
3.79383e-09
4.61614e-08
1.00917e-07
3.4422e-07
6.59924e-07
2.18787e-06
3.28599e-06
1.71395e-06
1.52297e-06
2.66597e-06
1.05329e-05
1.59506e-05
1.59508e-05
9.98195e-06
1.00008e-05
4.02962e-06
8.23146e-06
2.84398e-06
2.43883e-06
4.35273e-06
3.85389e-06
0.00423073
0.0107579
0.0695765
0.188727
0.450425
0.253053
0.386745
0.740258
0.740258
0.502291
0.528707
0.410163
0.384882
0.545882
0.490293
0.492666
0.472766
0.385541
0.395454
0.420698
0.427891
0.426567
0.435206
0.369825
0.232678
0.126929
0.25069
0.081989
0.0418855
0.00926579
0.025574
0.0168813
0.0458878
0.120037
0.199422
0.290663
0.168924
0.0705409
0.114289
0.256243
0.247394
0.46094
0.396141
0.556223
0.475389
0.623716
0.491653
0.301268
0.220358
0.194109
0.286266
0.704813
0.75805
0.766851
0.766851
0.732131
0.628652
0.660656
0.652907
0.699007
0.728284
0.766851
0.766851
0.549214
0.460846
0.563677
0.766851
0.701401
0.691648
0.7389
0.774109
0.785072
0.785072
0.771664
0.762849
0.77168
0.76845
0.828781
0.812888
0.755012
0.640528
0.641891
0.767983
0.642452
0.65715
0.452355
0.263401
0.125952
0.0656181
0.0394731
0.0267557
0.00801831
0.000411057
3.29463e-23
2.53337e-23
7.44835e-22
0.000752899
0.00886878
0.0121591
0.0287489
0.0656444
0.187096
0.359782
0.32756
0.145203
0.172386
0.0825234
0.052023
0.105635
0.223204
0.16473
0.161611
0.355039
0.40818
0.286427
0.269525
0.202536
0.18836
0.141402
0.130349
0.116516
0.100754
0.108429
0.0893025
0.133011
0.0736649
0.0706011
0.0921626
0.0485632
0.0201382
0.0217788
0.0939351
0.31069
0.0774945
0.0182801
0.000276583
9.06824e-07
4.32747e-07
1.04755e-06
1.46654e-06
7.71717e-07
3.9058e-07
3.13391e-07
2.9648e-07
1.57104e-07
5.35647e-08
1.05492e-08
1.60953e-10
2.33807e-27
3.57838e-24
4.16086e-24
5.00714e-24
1.30115e-09
2.50999e-07
5.28819e-08
1.23491e-08
9.99518e-10
3.94371e-14
7.48026e-12
1.66469e-07
1.46557e-07
2.8061e-06
3.2355e-08
2.77254e-10
3.15948e-09
4.69629e-07
3.33935e-07
3.90526e-06
3.90455e-06
2.3742e-06
7.28561e-07
5.81881e-06
5.93672e-05
3.22946e-05
4.8469e-06
1.05074e-06
2.80988e-07
1.0455e-06
1.78901e-06
9.47112e-07
1.92988e-06
2.2961e-06
2.78451e-06
1.98458e-06
1.08221e-06
1.45051e-06
1.91802e-06
3.34505e-05
0.0421323
0.53386
0.134353
0.0309155
0.0250737
0.0468093
0.0782136
0.104356
0.160349
0.06397
0.172376
0.385813
0.243131
0.451325
0.30624
0.473351
0.381056
0.443064
0.434434
0.409463
0.166105
0.131532
0.124858
0.400401
0.16097
0.0821375
0.0537784
0.0604665
0.0939819
0.10238
0.239114
0.429985
0.464138
0.538917
0.578573
0.601177
0.601177
0.496523
0.487407
0.48968
0.275775
0.135049
0.190067
0.492165
0.559491
0.3699
0.172313
0.00894308
7.1723e-08
8.99323e-08
1.2984e-07
1.99485e-07
1.99499e-07
5.79225e-08
2.70369e-08
1.86209e-08
1.71515e-08
7.11108e-09
3.85663e-09
1.88579e-08
4.04231e-09
9.35673e-10
2.45482e-09
1.69598e-09
1.08305e-09
1.20783e-09
1.77013e-09
2.60445e-09
3.19348e-08
5.21677e-08
1.14849e-07
3.14501e-07
1.26561e-06
1.28047e-06
1.59885e-06
1.86008e-06
2.40119e-06
7.4242e-06
4.69958e-06
1.185e-05
6.66685e-06
1.06472e-05
1.06524e-05
3.69579e-06
3.75754e-06
1.06958e-05
0.000484641
3.61694e-06
3.21231e-06
0.0022003
0.0133782
0.049383
0.150241
0.352565
0.514173
0.697757
0.740258
0.645971
0.661149
0.528083
0.252512
0.0971642
0.0962224
0.268425
0.130331
0.125315
0.101564
0.113436
0.0959692
0.103698
0.0886006
0.0192969
0.0409271
0.0700078
0.0479089
0.181297
0.256975
0.401844
0.276538
0.110345
0.0807302
0.145939
0.071491
0.193808
0.100062
0.157041
0.305093
0.261016
0.13372
0.0816519
0.0572975
0.063444
0.051474
0.0802597
0.0690504
0.0891804
0.101648
0.0915228
0.0525645
0.0042106
0.0222631
0.0679041
0.174648
0.304412
0.39568
0.214326
0.0965489
0.0724572
0.258381
0.247482
0.0796984
0.132142
0.267823
0.461649
0.384988
0.454893
0.56819
0.603082
0.663716
0.691098
0.714384
0.52935
0.419376
0.658094
0.692057
0.678559
0.697757
0.766851
0.766485
0.477959
0.348626
0.44984
0.319136
0.222985
0.192761
0.413967
0.788825
0.679021
0.542953
0.655908
0.736207
0.711462
0.735794
0.79059
0.790471
0.524586
0.421179
0.545649
0.790471
0.692644
0.676758
0.753491
0.766851
0.766851
0.749616
0.766851
0.766851
0.766851
0.766851
0.695407
0.65269
0.748129
0.783211
0.768512
0.782023
0.708302
0.610139
0.429986
0.580455
0.735321
0.792282
0.837644
0.796615
0.685655
0.501501
0.668381
0.561372
0.416964
0.206947
0.0931244
0.039087
0.0170101
0.00738518
0.00314047
0.000753469
2.61011e-22
4.55746e-05
4.18947e-06
0.00155833
0.00231561
0.00418822
0.0135417
0.0150976
0.0298814
0.0603041
0.0773427
0.16123
0.303807
0.433783
0.408702
0.375426
0.435683
0.384215
0.324986
0.18398
0.0838304
0.0697341
0.189121
0.295419
0.312848
0.331666
0.530383
0.593144
0.593144
0.587672
0.572055
0.49056
0.364373
0.168109
0.196022
0.142022
0.128555
0.13048
0.104113
0.249207
0.554703
0.441078
0.254424
0.0433845
0.000645769
3.77543e-08
3.72077e-08
5.79667e-08
6.23048e-08
2.2189e-08
1.87779e-08
9.52702e-09
6.83105e-09
5.32285e-09
3.76688e-09
1.2047e-09
1.17586e-09
1.10513e-09
7.44221e-10
5.68589e-09
9.28436e-09
1.76388e-08
2.47854e-08
1.38453e-07
2.57529e-07
8.56731e-07
1.11866e-06
1.21835e-06
1.33738e-06
2.73217e-06
2.12915e-06
5.07412e-06
3.37524e-06
5.17556e-06
2.10458e-06
0.000382902
4.43226e-06
0.0012397
0.00446329
0.0166842
0.0434154
0.123901
0.204489
0.388343
0.49039
0.572432
0.506832
0.361977
0.221552
0.270889
0.427473
0.40129
0.340027
0.335699
0.429598
0.244422
0.409597
0.457225
0.444089
0.429438
0.557496
0.556856
0.572382
0.573877
0.63392
0.642431
0.693176
0.722911
0.516525
0.491766
0.540646
0.599037
0.264372
0.131024
0.0421071
0.0113378
0.0452154
0.128581
0.304095
0.464123
0.760909
0.748944
0.760909
0.755831
0.515539
0.51939
0.460761
0.460788
0.461393
0.471936
0.365228
0.369714
0.272504
0.131893
0.185636
0.0892563
0.196215
0.366368
0.557761
0.609409
0.294876
0.209459
0.0841245
0.12557
0.137895
0.0551385
0.0506576
0.050657
0.0915747
0.0363708
0.00835006
0.002856
0.00247058
0.00215688
0.00180526
3.33959e-16
6.74855e-15
1.35565e-08
4.80372e-08
0.0227077
0.0651654
0.303271
0.5404
0.819911
0.83843
0.784205
0.85249
0.835656
0.852491
0.871746
0.898082
0.876007
0.898078
0.871815
0.871822
0.853646
0.848042
0.795028
0.734844
0.786258
0.523942
0.677328
0.850488
0.85478
0.854781
0.847157
0.847148
0.841795
0.823374
0.806428
0.723183
0.627977
0.703274
0.455711
0.619782
0.443321
0.62999
0.849262
0.846376
0.849262
0.736147
0.79059
0.73956
0.546739
0.36864
0.520677
0.278345
0.131061
0.0706138
0.261993
0.3922
0.503971
0.6036
0.486214
0.766851
0.766851
0.756282
0.741049
0.677577
0.677678
0.766851
0.694704
0.642566
0.636636
0.75427
0.754695
0.637964
0.40032
0.308541
0.493203
0.708477
0.704291
0.638494
0.437356
0.288342
0.223278
0.135201
0.0397283
0.0894762
0.211811
0.223196
0.372012
0.30117
0.220553
0.423924
0.603415
0.459792
0.339548
0.300577
0.400256
0.311218
0.325558
0.442471
0.48409
0.474926
0.190368
0.0767169
0.0295103
0.0112059
0.00387357
0.00146422
0.000672807
3.71893e-05
0.00119654
0.000823033
0.000937389
0.00148766
0.00294079
0.0101356
0.0149362
0.0273435
0.0441875
0.076127
0.0417404
0.064562
0.0400619
0.0241163
0.0449691
0.27359
0.243016
0.135255
0.0909295
0.226751
0.175147
0.196067
0.16317
0.383345
0.51407
0.374502
0.582731
0.582684
0.582731
0.532847
0.388878
0.174164
0.301826
0.310746
0.267275
0.207275
0.399886
0.455703
0.44758
0.31085
0.118417
0.108893
0.303368
0.560724
0.452617
0.307089
0.0830491
0.0196196
0.00574324
1.81782e-05
1.62467e-08
1.15502e-08
2.47181e-08
5.7068e-09
3.28608e-09
3.64507e-09
1.94296e-09
1.1601e-09
5.44975e-10
2.29397e-09
4.33119e-09
9.93628e-09
4.9653e-08
5.81888e-08
1.0678e-07
3.18899e-08
7.22299e-08
2.72076e-07
4.97569e-07
7.88587e-07
9.06946e-07
1.59526e-06
1.10463e-06
1.48912e-06
7.18407e-07
1.85217e-06
0.00289456
0.0106357
0.018964
0.0638507
0.245002
0.545649
0.760909
0.678895
0.652739
0.555562
0.358926
0.291123
0.385814
0.237429
0.205194
0.31702
0.189954
0.140394
0.282145
0.212777
0.23447
0.249427
0.23084
0.290343
0.163636
0.0942893
0.243271
0.441406
0.585818
0.697678
0.547885
0.330672
0.370948
0.553643
0.698356
0.709492
0.588952
0.428582
0.323106
0.482734
0.484263
0.608666
0.45769
0.308662
0.445074
0.582178
0.740076
0.792531
0.685783
0.542209
0.357519
0.435795
0.62713
0.512142
0.306374
0.22259
0.420047
0.428312
0.629575
0.651641
0.431362
0.344996
0.568086
0.765604
0.583113
0.472579
0.680163
0.765604
0.648411
0.637921
0.632905
0.534187
0.416276
0.566907
0.372833
0.283676
0.460453
0.584194
0.274868
0.500802
0.254668
0.471282
0.743437
0.765589
0.765604
0.738419
0.732255
0.614723
0.629372
0.626528
0.432817
0.390625
0.571628
0.704597
0.809692
0.586376
0.340512
0.517092
0.336622
0.210665
0.0920407
0.223016
0.400599
0.735093
0.574985
0.684349
0.633394
0.628689
0.495708
0.503934
0.684383
0.547909
0.710816
0.832581
0.826052
0.783702
0.669486
0.500712
0.60733
0.337915
0.218907
0.0615618
0.152597
0.282118
0.659045
0.798273
0.869519
0.902807
0.914992
0.914993
0.857433
0.905136
0.912365
0.912368
0.743221
0.555157
0.733998
0.486436
0.647189
0.807292
0.92412
0.954556
0.947365
0.954556
0.926423
0.929451
0.928698
0.913899
0.917082
0.917083
0.721342
0.824226
0.617942
0.793871
0.950985
0.95281
0.95281
0.92565
0.913644
0.892533
0.913643
0.899383
0.911494
0.911498
0.717509
0.821813
0.633745
0.800743
0.922035
0.905273
0.890172
0.90527
0.854233
0.753266
0.606506
0.660452
0.730952
0.619968
0.63944
0.626253
0.589613
0.512156
0.507142
0.575311
0.480642
0.369097
0.403078
0.529032
0.590835
0.590648
0.531744
0.291887
0.170649
0.111651
0.0537393
0.0172196
0.00614532
9.62378e-08
5.30943e-08
1.08346e-08
2.82294e-09
1.71311e-09
1.71274e-09
2.28621e-09
2.39444e-09
3.89984e-09
1.59398e-09
7.26205e-09
1.25001e-08
2.58523e-08
1.2538e-07
1.92254e-07
3.4776e-07
4.80951e-07
6.17275e-07
5.74991e-07
5.81258e-07
2.85563e-07
2.85563e-07
0.00105587
0.00473762
0.0148496
0.158003
0.288076
0.464092
0.63114
0.726367
0.765604
0.66642
0.645251
0.686078
0.57447
0.576118
0.721688
0.619637
0.55082
0.476642
0.45851
0.684534
0.784148
0.718355
0.784054
0.783586
0.774211
0.877396
0.913514
0.911241
0.913514
0.705008
0.510999
0.701323
0.890957
0.79514
0.774568
0.889576
0.922046
0.957312
0.950723
0.956816
0.958651
0.950343
0.956449
0.915059
0.863805
0.733354
0.73312
0.642116
0.508772
0.585793
0.637507
0.720247
0.73863
0.633534
0.569578
0.5085
0.576921
0.524733
0.405539
0.337784
0.235125
0.111761
0.0973732
0.0529503
0.0212517
0.00699856
1.59627e-05
3.13745e-08
3.27874e-08
1.7435e-08
2.79921e-09
2.16621e-09
5.07949e-09
5.64192e-09
1.05755e-08
2.33639e-08
9.3958e-08
2.16179e-07
2.44666e-07
5.53969e-07
3.91822e-07
3.49807e-07
3.60662e-07
0.00776194
0.0258227
0.0666866
0.119691
0.162837
0.309837
0.408831
0.42547
0.57568
0.647717
0.637905
0.696664
0.732679
0.768571
0.724171
0.659215
0.695042
0.52509
0.546289
0.415842
0.70301
0.665844
0.689845
0.76405
0.801815
0.871403
0.805504
0.90287
0.954392
0.97169
0.959999
0.97169
0.862515
0.722529
0.831822
0.878921
0.967682
0.967381
0.964246
0.985103
0.981684
0.985104
0.973346
0.974085
0.965435
0.969707
0.969707
0.859869
0.699599
0.820938
0.951095
0.880425
0.769881
0.818677
0.812512
0.535898
0.704374
0.72988
0.622236
0.757085
0.718046
0.572304
0.547821
0.658948
0.645221
0.526571
0.359046
0.241463
0.112512
0.105847
0.0237556
0.019155
0.00816325
0.00033535
0.000211474
1.96281e-05
1.39081e-08
1.06118e-08
1.06173e-08
1.1648e-08
2.63283e-08
3.50366e-08
5.30164e-08
5.69328e-08
1.72273e-07
2.51727e-07
1.33357e-06
8.69522e-07
0.0173536
0.0478994
0.090021
0.17097
0.253149
0.378586
0.478273
0.45537
0.573231
0.645992
0.756007
0.78821
0.788225
0.791351
0.805876
0.713367
0.73792
0.737641
0.690729
0.781601
0.796475
0.889222
0.889378
0.906377
0.867416
0.936798
0.959194
0.974159
0.976903
0.982687
0.983157
0.981182
0.985312
0.979028
0.96816
0.967254
0.921049
0.838659
0.865078
0.831776
0.609192
0.764537
0.758335
0.656894
0.752002
0.751719
0.635546
0.61418
0.695706
0.641319
0.398886
0.352602
0.202704
0.0716206
0.0266909
0.0265986
0.0240829
0.0598769
0.125689
0.101998
0.0694243
0.0598728
0.0329588
0.018692
0.0105958
6.76716e-08
7.27182e-08
1.04157e-07
5.96077e-08
4.98037e-08
1.23971e-07
1.77773e-07
9.28992e-08
0.00624403
0.0145524
0.0387303
0.0736861
0.140707
0.216416
0.267359
0.352029
0.440387
0.56029
0.715461
0.740802
0.780967
0.825569
0.825685
0.700603
0.724887
0.733656
0.801064
0.656528
0.717137
0.85874
0.91977
0.927063
0.90762
0.94141
0.976052
0.985616
0.974203
0.983237
0.918325
0.818459
0.900653
0.930602
0.983855
0.985616
0.977144
0.991121
0.988018
0.988328
0.987807
0.990758
0.980237
0.98603
0.98603
0.974903
0.948794
0.885578
0.89282
0.868482
0.759395
0.753784
0.750796
0.806331
0.801264
0.777567
0.695509
0.66523
0.713758
0.680004
0.538403
0.408477
0.105045
0.0550435
0.137643
0.225019
0.180599
0.388391
0.296908
0.264944
0.263898
0.214661
0.146886
0.0944083
0.0618751
0.027946
0.0122295
0.00532664
7.10171e-08
0.00149697
0.0165975
0.0854507
0.266591
0.22525
0.384694
0.206507
0.348505
0.530376
0.225693
0.347788
0.529549
0.619563
0.884701
0.846222
0.830746
0.77987
0.861467
0.893958
0.832741
0.833361
0.88294
0.908661
0.917966
0.949935
0.958733
0.958733
0.962553
0.972456
0.988356
0.98889
0.986688
0.99324
0.993733
0.993796
0.991865
0.993273
0.980862
0.98375
0.980505
0.952274
0.94529
0.88442
0.83724
0.841321
0.851175
0.869502
0.789383
0.809221
0.800865
0.774918
0.758101
0.758096
0.744286
0.623378
0.611349
0.410685
0.146103
0.101271
0.168792
0.224329
0.360913
0.541515
0.476453
0.717906
0.648184
0.580516
0.556546
0.478703
0.272085
0.0947797
0.137326
0.202707
0.276079
0.365755
0.514732
0.872355
0.933235
0.879731
0.8508
0.811697
0.743357
0.379905
0.52919
0.884701
0.84889
0.848211
0.893958
0.880422
0.910608
0.929326
0.908914
0.914901
0.927848
0.95888
0.968476
0.979197
0.992094
0.992094
0.991919
0.994909
0.99495
0.995361
0.996035
0.993952
0.991109
0.968767
0.963406
0.900615
0.87597
0.892045
0.908675
0.896848
0.846249
0.797488
0.822706
0.674793
0.484753
0.465695
0.437027
0.166959
0.119278
0.205474
0.455268
0.638854
0.821672
0.781008
0.871244
0.924614
0.937189
0.942477
0.920261
0.913391
0.881773
0.618101
0.716964
0.347539
0.472637
0.553196
0.620974
0.947331
0.95056
0.942476
0.727754
0.764074
0.938156
0.925074
0.935365
0.953048
0.97733
0.974937
0.971573
0.990539
0.993858
0.996359
0.996504
0.997118
0.997229
0.995388
0.989892
0.965565
0.970044
0.916557
0.894775
0.91473
0.92326
0.917011
0.822452
0.772269
0.83715
0.666236
0.516699
0.183391
0.182736
0.169132
0.137025
0.299234
0.550642
0.698513
0.844812
0.896638
0.872413
0.888851
0.962069
0.958923
0.94668
0.939109
0.954478
0.963123
0.98113
0.990801
0.983106
0.994529
0.997076
0.999276
0.997292
0.998476
0.981036
0.934732
0.979177
0.998635
0.999047
0.999047
0.982729
0.956423
0.982955
0.998081
0.994435
0.979318
0.982627
0.976962
0.832036
0.875077
0.975877
0.947831
0.867505
0.828509
0.875049
0.873797
0.597997
0.281323
0.0921506
0.157667
0.345044
0.493315
0.455541
0.415589
0.671938
0.718768
0.452001
0.691241
0.322835
0.43268
0.504244
0.890046
0.972651
0.965145
0.958406
0.974714
0.943052
0.93498
0.972277
0.994728
0.996218
0.996781
0.991223
0.997207
0.998555
0.999278
0.997783
0.998888
0.999047
0.999343
0.997407
0.988993
0.992906
0.988249
0.902628
0.918093
0.976423
0.970324
0.905283
0.877808
0.926702
0.922432
0.376583
0.141251
0.469095
0.612597
0.808926
0.733822
0.658934
0.147554
0.202736
0.283506
0.401723
0.868273
0.970943
0.951414
0.923287
0.987858
0.992732
0.994296
0.96342
0.96215
0.984312
0.997693
0.998599
0.995753
0.998588
0.999217
0.999577
0.999111
0.999601
0.999526
0.999717
0.998841
0.994512
0.996886
0.994825
0.951983
0.958961
0.98561
0.982483
0.934587
0.917486
0.954294
0.947098
0.479507
0.214279
0.547698
0.698673
0.772152
0.916366
0.984096
0.998347
0.996955
0.994684
0.926682
0.953115
0.996975
0.982999
0.991209
0.992762
0.998805
0.999301
0.997972
0.999213
0.999516
0.999747
0.999468
0.999808
0.999769
0.999878
0.999487
0.997351
0.998575
0.997865
0.975302
0.978396
0.993016