/*--------------------------------*- C++ -*----------------------------------*\
  =========                 |
  \\      /  F ield         | OpenFOAM: The Open Source CFD Toolbox
   \\    /   O peration     | Website:  https://openfoam.org
    \\  /    A nd           | Version:  7
     \\/     M anipulation  |
\*---------------------------------------------------------------------------*/
FoamFile
{
    version     2.0;
    format      ascii;
    class       surfaceScalarField;
    location    "19";
    object      alphaPhi0.water;
}
// * * * * * * * * * * * * * * * * * * * * * * * * * * * * * * * * * * * * * //

dimensions      [0 3 -1 0 0 0 0];

internalField   nonuniform List<scalar> 
42560
(
-3.62646e-08
6.70594e-08
-3.88056e-07
-8.2131e-10
1.00857e-08
2.89308e-07
-4.99919e-08
2.05495e-10
4.76088e-10
-2.10942e-15
3.16222e-08
-7.24345e-07
4.80217e-07
-1.78376e-14
1.73054e-08
5.85851e-10
-3.10281e-12
5.25456e-12
2.74488e-14
-5.52721e-11
1.06985e-10
-7.22728e-13
-2.59004e-10
5.65359e-10
-1.38247e-12
6.5498e-10
4.42293e-09
6.31459e-11
7.30239e-08
1.18231e-08
1.30901e-08
5.43893e-07
-3.45795e-07
-1.87702e-10
5.89814e-07
-7.89175e-07
1.81543e-07
3.05128e-07
-1.58915e-07
2.74836e-08
3.70858e-08
1.16227e-07
2.63093e-08
1.42605e-09
1.76216e-08
1.50905e-10
3.11118e-11
4.96938e-10
2.4491e-13
5.74613e-13
9.32274e-12
-4.02451e-16
-2.72768e-19
1.60643e-13
-1.29854e-17
-8.14433e-21
1.94033e-18
-1.07982e-21
4.29874e-19
7.14709e-18
-1.71766e-21
-2.56798e-19
1.12849e-17
-1.07184e-21
6.92587e-21
1.67242e-18
-1.09284e-24
5.20435e-18
6.31765e-17
-2.47411e-18
-4.61918e-11
4.25753e-11
-7.87603e-16
-4.305e-10
3.41909e-10
-2.71082e-16
-1.30442e-08
1.17827e-08
2.54112e-10
-1.85233e-07
1.54987e-07
1.5611e-08
-3.80772e-07
3.70492e-08
1.12174e-07
-7.07499e-07
-9.08211e-08
6.3282e-08
-1.09147e-06
-9.21926e-08
-4.51725e-09
-2.10056e-06
-1.06706e-07
1.03997e-07
-2.76707e-06
-2.64349e-07
-9.32655e-09
-3.29967e-06
-4.94797e-07
-1.00638e-07
-4.28229e-06
-2.1942e-07
-2.04712e-08
-7.54228e-06
6.8442e-07
1.16108e-06
-9.59298e-06
6.0691e-07
-1.20326e-08
-1.2826e-05
-5.49056e-07
-4.65515e-07
-1.87231e-05
-2.05212e-06
-2.49197e-06
-3.26312e-05
-4.59479e-06
-3.14222e-06
-8.07842e-05
-1.25634e-05
8.27651e-06
-0.000111562
-3.61604e-05
-1.00775e-05
-0.000182624
-6.27181e-05
-1.26113e-05
-0.000433091
-0.00013802
4.05599e-05
-0.00059111
-0.000322172
-4.43889e-05
-0.00100457
-0.000601293
-7.10096e-05
-0.00211885
-0.00136247
-1.64025e-06
-0.00205352
-0.00343964
-0.000771984
-0.0030293
-0.00459242
-0.000561053
-0.00517344
-0.00915685
-0.00132423
-0.00439448
-0.0164847
-0.00251789
-0.00351818
-0.0234078
-0.00348481
0.000815858
-0.0293438
-0.00583827
0.00433665
-0.0302107
-0.00522765
0.00502901
-0.027216
-0.00385302
0.00473272
-0.0185745
-0.00322263
0.00123575
-0.0100811
-0.000311126
0.000678679
-0.00757599
0.000248768
0.00408176
-0.0208131
-0.000819053
0.0012203
-0.0171109
-0.000237601
-0.00252348
-0.0122144
0.000176839
0.000347675
-0.017639
-0.000557116
-0.00108391
-0.0167143
-0.000630138
-0.00189086
-0.0143062
-0.000182938
0.00240399
-0.017973
-0.00122517
0.000727158
-0.0149239
-0.000583756
2.15351e-05
-0.0120641
-0.000136698
0.00117262
-0.0102655
-0.000665054
0.00129237
-0.00492966
-0.000491515
0.00104913
-0.00254052
-0.00029927
0.000407194
-0.000785523
1.94611e-05
0.000176117
-0.000347245
-5.46457e-05
8.49974e-05
-0.000178415
-1.92516e-05
5.43562e-06
-7.34663e-05
1.31571e-05
-9.18746e-05
-7.41053e-05
4.54524e-06
-0.00031167
-0.000197136
1.75745e-05
-0.000419612
-0.000704386
-9.42677e-05
-0.000178041
-0.00118371
-0.000157653
-0.000309863
-0.00183778
-0.000167547
-0.00104422
-0.00292777
-0.000282516
-0.00344662
-0.0103545
-0.000373662
0.000988898
-0.0149367
-0.00168546
-0.00587094
-0.0136461
-0.000828889
-0.00716128
-0.0273775
-0.0012962
9.27087e-05
-0.0422041
-0.00388853
-9.25544e-05
-0.0313052
-0.000296393
-0.00643044
-0.0364549
-0.00212344
0.00506208
-0.0486816
-0.00410926
0.00170808
-0.0310052
-0.000537505
-0.00025582
-0.0350448
-0.00251244
-0.000446634
-0.0373772
-0.00286704
-0.000679106
-0.0398171
-0.00318644
-0.000365294
-0.0392329
-0.00307832
0.000115836
-0.03914
-0.00308629
-0.000200656
-0.0399533
-0.00306061
0.000231298
-0.0371677
-0.00286676
-0.00195109
-0.0352156
-0.00252523
-0.00360106
-0.0302018
-0.000490693
0.00470132
-0.0416422
-0.00379631
0.00146272
-0.0284582
-0.00171461
-0.00142367
-0.0183878
7.97109e-05
0.00485863
-0.019638
-0.00237291
0.00194634
-0.0160306
-0.000628737
0.000626817
-0.00789978
-0.000104197
0.00241365
-0.00865841
-0.000793415
0.000449289
-0.00297866
0.000107728
1.1553e-06
-0.00232052
8.29286e-05
0.000307867
-0.00495182
-9.1497e-05
0.000295881
-0.00165307
-0.00015585
0.000280011
-0.00118069
-0.000104048
6.6357e-06
2.695e-05
-0.000372154
-0.000150964
1.68838e-05
-0.000130045
-0.000260861
-8.15327e-06
-0.000366808
-0.000327313
-0.000110627
-0.000708388
-0.00111156
-0.000233395
-0.00119871
-0.00295041
-8.98263e-05
-0.00413554
-0.00262624
-0.00130443
-0.0125299
0.000989068
-0.00174719
-0.0171353
0.00146281
-0.00125044
-0.0155276
0.00010375
-0.00100114
-0.0102373
-0.00262759
-0.00120638
-0.00781424
0.00199197
-0.000646543
-0.0108592
-0.000662049
0.000240979
-0.00532029
-0.00113626
8.96796e-05
-0.00976691
0.000572444
-0.000376434
-0.0120461
0.000248794
0.000336309
-0.0081141
-0.00168644
7.18477e-05
-0.0100255
0.00113003
-0.000550868
-0.00997865
0.00028135
0.000163919
-0.006706
-0.000159223
-0.000318565
-0.007017
-0.000425101
-0.00025727
-0.00624688
-0.000400216
-0.000488971
-0.00475642
-0.000399921
-0.000300627
-0.00483916
-0.000582042
-0.000647271
-0.00463148
-0.000432671
-0.00111822
-0.00679301
-0.000820219
-0.000966238
-0.00700065
-0.00150354
-0.00122195
-0.0137971
-0.00280297
-0.000458562
-0.014663
0.000398308
-0.00138416
-0.0230829
-0.000635905
-0.00146803
-0.019443
-0.00224546
-0.000568158
-0.0170541
0.00405622
-0.00199753
-0.0239042
0.00206594
-0.000720725
-0.0178779
0.00140269
-0.000437544
-0.0115882
0.00209953
-0.00094116
-0.00685708
0.000871817
-8.23397e-05
-0.00277885
0.000514238
-0.000138786
-0.00112153
0.000338764
-8.54417e-05
-0.000626879
0.000232796
-4.80101e-05
-0.000304801
0.000152798
-3.01054e-05
-0.000136451
5.99229e-05
1.43633e-05
-4.63529e-05
1.89277e-05
-1.14932e-06
-2.40402e-05
-6.50241e-06
3.50643e-06
-1.2683e-05
-1.40881e-05
-1.04415e-05
-8.56103e-06
-4.98127e-05
-3.61943e-05
-2.80477e-05
-0.000189781
-8.0695e-05
-0.000102106
-1.33729e-05
-0.0006702
-0.000475154
9.6991e-05
-0.000331304
-0.000216679
3.51675e-05
-6.08013e-05
-6.11681e-05
1.16416e-05
-1.93169e-05
-1.33392e-05
8.12561e-06
-1.28241e-05
-4.11518e-06
6.21165e-06
-1.79098e-07
1.58117e-06
2.74557e-06
6.69589e-07
2.18985e-06
4.81064e-08
1.57532e-06
7.7827e-09
2.08195e-09
4.20241e-08
1.99992e-07
4.61655e-07
-1.9069e-06
-5.98695e-10
1.75245e-06
1.97827e-05
-3.76984e-05
-6.49739e-07
1.17518e-05
5.27298e-06
1.35862e-06
-3.67875e-05
-4.59467e-06
-7.76639e-05
-0.000164358
-0.000108968
4.67103e-05
-0.00100311
-0.000765764
6.65755e-05
-0.00147416
-0.00161842
0.000263757
-6.98392e-05
-0.000572836
-0.000574814
5.31475e-05
-4.34363e-05
-2.11113e-05
-1.64285e-05
-9.72217e-06
-5.05208e-05
-1.10127e-05
-1.25791e-05
6.22719e-06
-6.93228e-06
-1.50076e-05
-1.27019e-06
-3.15563e-06
-1.80258e-07
-1.1386e-05
-1.82059e-07
1.79706e-06
6.25859e-06
-2.35397e-05
-3.05034e-05
-1.11448e-05
-3.73514e-05
-4.77996e-05
-8.3341e-05
-2.30353e-05
-0.000119259
-0.000242349
-0.000258494
-0.000256505
-0.000515227
-0.000374251
-0.000233305
-0.000443058
-4.08006e-05
-0.000966878
0.000256405
-0.00112195
-0.00327582
-0.000565572
-0.00115259
-0.00233473
-0.00147474
-7.61799e-05
-0.00149986
-0.000695689
-0.00611337
0.00168269
-0.00133073
-0.0111601
0.000319688
-0.00333884
-0.00191116
-0.00384815
0.000395428
-0.000785689
-0.00138238
-0.00779937
0.00220296
-0.000656156
-0.0119685
0.000883517
-0.00295759
-0.000682068
-0.0031086
0.00165395
-0.000484989
-0.00119226
-0.00794119
0.000477623
-0.00312969
-0.000667058
-0.00336742
0.00124473
-0.000436054
-0.000807312
-0.00610952
0.00036148
-0.00236278
-0.000192357
-0.00216012
0.000968208
-0.00033156
-0.000550721
-0.00490475
0.000218338
-0.0018556
-0.000282073
-0.00175222
0.000614001
-0.000310593
-0.000410248
-0.00416793
-1.82379e-05
-0.00189111
-0.000312376
-0.00151269
0.000154263
-0.000314039
-0.00437128
0.000585906
-0.000240695
-0.000225794
-0.00260397
9.75953e-05
-0.00143522
-8.27618e-05
-0.00137164
0.000183807
-0.000184308
-0.00424166
0.000516937
-0.000315582
-0.000187134
-0.00297902
-1.80829e-05
-0.00166622
-0.000480174
-0.00141702
0.0001935
-0.000446969
-0.0052849
0.00159377
-0.000538672
-0.000617514
-0.00416981
0.000111272
-0.00221739
-0.00111973
-0.00175357
-9.44031e-05
-0.00110091
-0.00711575
0.000411419
-0.0010813
-0.00583905
0.000507249
-0.000754791
-0.00350526
0.000489281
2.19789e-05
-0.000124573
-0.000669279
0.000327688
-0.00026224
4.64666e-05
-0.000223687
7.79803e-05
-9.80025e-05
-0.000315285
0.000109404
1.05405e-05
-0.000304573
5.41939e-05
-6.14358e-05
9.79324e-06
-6.68222e-05
-4.06775e-05
1.35709e-05
-1.90966e-05
-0.000215455
-1.71228e-05
9.53075e-06
-0.000171606
-2.89247e-05
-0.000194886
-1.1847e-05
-1.43207e-07
3.28269e-06
-4.31438e-05
-6.08704e-05
-4.12178e-05
-0.000205861
1.30593e-05
-0.00074151
-0.00101907
0.000165609
-0.000909119
-0.00209121
-0.000721338
-0.0033381
0.000154924
-0.000630002
-8.3057e-05
-0.00127154
0.000148077
-0.000404114
-0.00152803
-0.000242972
-0.00232273
8.34988e-05
-0.00023231
-0.000102879
-0.000620909
8.43124e-05
-0.000208499
-0.00084216
-0.000188323
-0.00155881
9.8786e-05
-0.000216214
-7.79232e-05
-0.000518332
0.000107154
-0.000207353
-0.000917985
-0.000205857
-0.00194654
0.00011445
-0.000220255
-0.000138097
-0.000711165
-0.000229477
-0.00213389
0.000168335
-0.000314845
-0.000182558
-0.000883127
-0.000322464
-0.00261884
0.000239089
-0.000419631
-0.000318978
-0.00129227
-0.00047225
-0.00362801
0.000392746
-0.00065457
-0.00048709
-0.00205672
-0.000717498
-0.00508041
-0.000874
-0.00092324
-0.00346173
-0.000815102
-0.000868892
-0.00213269
0.00047683
-0.000625124
-0.000567627
-0.000922607
-0.000516992
-0.0013259
0.00041576
-0.000423759
-0.000470817
-0.000609848
-0.000319886
-0.000851497
0.000273631
-0.000241608
-0.000303281
-0.000448735
-0.000183567
-0.000594845
0.000255769
-0.000170881
-0.000237068
-0.000336462
-0.000143566
-0.000467412
-0.000137454
-0.000224183
-0.000344632
0.000114502
-7.39051e-05
-0.000182298
0.000204338
0.000210744
-0.000888571
-0.000228476
-0.000235287
0.000258783
-0.000283526
-6.32189e-05
-0.000661188
-0.000351984
-0.000316328
0.000709698
-0.000955451
-0.000445686
-0.00154012
0.00106366
-0.000615166
-0.000852061
0.0013295
-0.000969352
-0.00170645
0.00139889
-0.000939671
-0.00363196
-0.00095586
-0.00595789
-0.00162241
-0.000873972
-0.0039571
-0.00133854
-0.000935897
-0.00217261
0.000962643
-0.00121159
-0.0017073
-0.00463944
0.0012786
-0.000869759
-0.00150264
0.0012188
-0.000610821
-0.00237701
-0.000286222
-0.00279946
-0.000609489
-0.00012562
-0.000899659
-0.000742209
-0.000284517
-0.000975398
-0.00096221
-0.000434947
-0.000765821
0.000526883
-0.000322444
-0.00168763
-0.00331118
0.000299952
-7.59041e-05
-0.000391177
0.000196364
-9.8297e-05
-0.000244322
0.000143584
-4.4177e-05
-0.000233529
-7.66566e-06
-0.000222659
-6.43932e-05
2.44267e-07
-3.13145e-05
-7.8719e-05
-2.17067e-05
-3.1229e-05
6.64679e-05
3.08409e-05
-0.000284666
-0.000122836
3.89268e-05
-6.43296e-08
3.70995e-06
2.79624e-06
2.35962e-06
-8.33263e-08
4.3755e-08
2.72287e-06
-2.23817e-06
5.34381e-08
2.10272e-06
1.6052e-06
3.29701e-06
-3.63046e-06
3.02356e-05
-1.84232e-07
3.19667e-07
1.56171e-06
-2.21729e-06
2.3691e-07
1.82456e-06
1.39085e-06
4.45533e-06
-0.000169523
-8.91758e-05
-0.000414603
0.000106555
-0.000303039
-0.000668203
0.000222589
-0.000957779
0.00126444
0.000295974
-0.00390669
-0.00626682
0.00101204
0.000273225
-0.00172105
0.000125182
-0.00107263
-0.00304355
-1.16394e-05
-0.0038149
-0.00340053
1.03232e-05
-0.00947219
0.00310275
-0.000257353
-0.000220341
-0.0235897
-0.0574601
0.00239547
-0.000153272
-0.00643139
5.43233e-05
-0.00229109
-0.000348467
-0.000265383
-0.000580393
-1.54151e-08
-0.000868857
-0.000174556
-1.08541e-06
-0.00196925
-6.17434e-05
-7.44427e-06
-0.000582097
1.8089e-05
-1.34967e-10
2.57575e-05
-0.000100933
-6.9687e-05
6.51235e-06
-2.33528e-11
5.33883e-06
1.90235e-06
-4.53867e-12
3.88214e-06
6.90802e-09
1.31493e-06
-1.24337e-11
-2.46755e-10
4.46417e-09
-1.28081e-11
-1.16397e-13
-3.63228e-11
-7.15319e-11
-1.62757e-12
5.05664e-11
3.15416e-11
-1.81491e-12
-1.22475e-10
1.53779e-11
5.95968e-13
3.33048e-12
-1.26951e-14
2.96712e-11
3.79546e-13
1.58792e-15
3.11137e-12
2.05659e-09
4.85957e-08
9.70174e-09
-1.89666e-11
4.52982e-09
4.86529e-07
-5.83788e-07
4.60268e-07
9.07892e-08
-4.4132e-07
-1.71768e-06
-4.8721e-06
5.3371e-06
1.72492e-06
-2.04619e-08
-2.09855e-06
5.2427e-07
-4.77081e-07
-1.02242e-08
-1.49729e-08
2.03107e-08
-1.34961e-08
-5.03873e-10
6.77421e-10
4.23386e-09
-9.65094e-09
-1.71e-10
1.52249e-11
5.00084e-11
-1.17663e-09
2.61013e-09
5.6706e-11
-1.49112e-09
5.67211e-09
2.47033e-10
3.83514e-08
1.60528e-08
5.65828e-09
4.64469e-07
-3.77133e-07
7.88307e-08
7.34073e-07
-3.67988e-07
-1.37981e-08
3.4494e-07
-2.71294e-07
7.94192e-08
2.18071e-07
-2.35267e-08
-4.61405e-08
2.14307e-08
1.55997e-07
2.8732e-08
1.77907e-10
1.77036e-08
2.03285e-09
4.05734e-12
2.17498e-10
2.25608e-11
1.86791e-13
3.69353e-12
3.06947e-13
-7.65482e-18
8.41069e-14
4.68611e-15
4.12465e-19
1.32805e-16
1.11328e-17
3.05103e-17
5.69249e-16
4.73883e-17
-7.32785e-15
3.49817e-14
1.88147e-15
6.62044e-16
1.24104e-13
1.11991e-14
1.89724e-16
1.77037e-15
1.64179e-16
-5.6152e-12
3.97996e-11
3.21048e-12
1.41057e-11
2.69203e-10
3.11565e-11
2.06004e-09
8.69624e-09
5.68799e-10
2.58358e-08
1.13568e-07
1.65832e-08
1.4111e-07
-3.52852e-08
9.11351e-09
1.13464e-07
-6.35632e-08
-1.5314e-09
1.83877e-08
2.11065e-09
1.48531e-09
-7.44789e-08
2.20155e-09
-1.63262e-08
-3.51604e-07
-4.55465e-09
-3.15838e-10
-8.38242e-07
-4.94561e-08
4.92125e-08
-8.59746e-07
-4.31851e-08
-1.54731e-07
-7.98809e-07
4.31532e-07
1.62004e-07
-2.5631e-07
8.4743e-08
-8.68875e-09
-7.87092e-07
2.50401e-07
-2.37022e-07
-2.12291e-06
8.56544e-08
-7.45648e-07
-5.62578e-06
-3.42802e-07
-6.46325e-07
-1.81519e-05
-8.60678e-07
1.0836e-06
-3.84741e-05
-1.14101e-05
-3.86427e-06
-7.20145e-05
-1.9672e-05
-8.8439e-06
-0.000183229
-3.73259e-05
1.18135e-05
-0.000315051
-0.000156056
-3.34771e-05
-0.000533747
-0.000286844
-0.000101148
-0.00130464
-0.000622638
7.25596e-06
-0.00139394
-0.0024245
-0.000980583
-0.00205136
-0.00288815
-0.000999537
-0.00433282
-0.00535096
-0.0013778
-0.00399693
-0.0116622
-0.00486834
-0.00441505
-0.0175823
-0.00523074
0.000576798
-0.0258017
-0.00853427
0.00513231
-0.0265143
-0.00825152
0.00432518
-0.0195514
-0.00643709
0.00364175
-0.0114254
-0.00637884
0.00105614
-0.00709541
-5.40726e-05
3.82535e-05
-0.00583196
-0.000425207
0.00349338
-0.0201192
-0.00200905
0.000234809
-0.0116265
-0.000759552
-0.00166643
-0.00833328
-0.00111151
-0.000302157
-0.0182712
-0.00204408
-0.00101411
-0.0151478
-0.00189755
-0.00247951
-0.0125627
-0.00115874
0.00250505
-0.0224733
-0.00283739
0.000748148
-0.0130607
-0.00114273
-0.000328916
-0.00927384
-0.000907762
0.00136962
-0.00923262
-0.00154318
0.00122742
-0.00429669
-0.00101374
0.000833467
-0.00203391
-0.000497488
0.000116738
-0.000141694
1.47717e-05
9.83161e-05
-0.000272834
-5.39445e-05
3.31581e-05
-9.45809e-05
-1.00723e-05
-5.35032e-06
-4.18519e-05
1.32512e-05
-2.31588e-05
-4.32007e-05
-9.28507e-06
-0.000176208
-3.41284e-05
3.42087e-06
-0.000183955
-0.000477367
-0.000132562
-9.87036e-05
-0.000848268
-0.000260314
-0.000165357
-0.00140318
-0.000404521
-0.000673938
-0.00196056
-0.000568817
-0.00437926
-0.0060007
-0.000977537
0.000551662
-0.0154957
-0.00387534
-0.00168551
-0.00791232
-0.00288352
-0.00816446
-0.0183061
-0.00231987
0.00231662
-0.044053
-0.00836949
-0.000192494
-0.0264346
-0.00265085
-0.00307275
-0.0297905
-0.00412954
0.0053069
-0.0483985
-0.0088196
0.00166315
-0.0248339
-0.00252757
9.58102e-05
-0.0286679
-0.00481089
-0.000742377
-0.031074
-0.00546504
-0.000680844
-0.0340546
-0.00582718
-0.00031194
-0.0338269
-0.00577339
-1.36056e-05
-0.0337773
-0.00566413
0.000195334
-0.0344139
-0.00574691
-0.000510445
-0.0311989
-0.00526585
-0.00170994
-0.0291927
-0.00482211
-0.00474126
-0.0248387
-0.00262743
0.00247696
-0.0412377
-0.00863968
0.000730655
-0.0212383
-0.00457363
-0.00155539
-0.0173903
-0.00278659
0.00267058
-0.0255967
-0.00591855
0.000997546
-0.011461
-0.00229253
0.000246652
-0.00590989
-0.00115844
0.00118787
-0.00683413
-0.00172983
0.000212938
-0.00223557
-0.000126196
-9.33374e-05
-0.00133292
-0.0004114
9.13623e-05
-0.0040125
-0.000446977
0.000197557
-0.00160186
-0.000409352
0.00026712
-0.00116533
-0.000229529
6.36291e-06
-0.000118252
6.51284e-07
-7.51676e-05
-8.5722e-05
4.0603e-06
-0.000203176
-8.83591e-06
-0.000321685
-0.000446695
-0.000155215
-0.000738405
-0.000782234
-0.00134318
-0.000369921
-0.00476432
-0.00152518
-4.2929e-05
-0.00320068
-0.0139694
-0.00246392
0.000948204
-0.0165447
-0.00323971
0.00101284
-0.0140897
-0.00293244
0.000338075
-0.00681553
-0.00229015
-0.00107116
-0.00631918
-0.00233607
0.000658492
-0.00714614
-0.00221033
1.1984e-05
-0.00378694
-0.000545953
-0.000940351
-0.00526486
-0.00041746
0.000969001
-0.0120916
-0.000800508
2.43299e-05
-0.00361189
-0.000238779
-0.000867733
-0.00437414
-0.00038263
0.00182194
-0.0113099
-0.00163032
0.000360349
-0.00659853
-0.00122573
-0.000164671
-0.00738447
-0.00217507
-0.00066575
-0.00698157
-0.00188186
-0.000645552
-0.00619155
-0.00195107
-0.000556459
-0.00642322
-0.00211744
-0.000945969
-0.00732781
-0.00191013
-0.000307565
-0.00889969
-0.00389263
-0.00151648
-0.00932422
-0.0031051
-0.00220858
-0.0136335
-0.00308111
-0.00429234
-0.0113003
-0.00127896
-0.000726543
-0.0235555
-0.00309327
-0.000967768
-0.0161863
-0.00301545
-0.00237162
-0.0138815
-0.00176885
0.0037863
-0.0244622
-0.0043429
0.00204126
-0.0119053
-0.00186501
0.00195324
-0.00882584
-0.00156431
0.00180076
-0.00541702
-0.00170564
0.000562524
-0.00149707
-0.000147973
0.000284921
-0.000546703
-0.000256433
0.000207303
-0.000377717
-0.000133231
0.000131509
-0.00015417
-6.6223e-05
7.52116e-05
-5.07987e-05
-3.10217e-05
1.67799e-05
4.72453e-06
5.98459e-06
7.90291e-06
-3.78051e-07
-1.51121e-05
-7.53905e-06
-4.80658e-06
4.15888e-06
-1.05685e-05
-8.52614e-06
-4.40632e-07
-1.18051e-05
-1.57148e-05
-1.41274e-05
-9.9178e-05
-1.09632e-05
-1.17615e-05
3.07726e-05
-0.000283228
-0.000356745
4.70053e-05
-9.34201e-05
-0.000153015
1.51228e-05
-1.28616e-05
-2.11834e-05
7.8673e-06
-5.73186e-06
-1.28527e-06
6.40275e-06
-1.38802e-06
-7.12245e-07
7.21555e-06
2.0178e-06
4.74067e-07
4.54331e-06
3.22673e-06
1.09685e-06
1.93926e-06
3.67689e-06
1.73919e-07
7.85018e-08
1.55387e-06
4.25248e-08
5.4069e-09
6.26697e-09
5.16008e-09
-2.27963e-06
1.02331e-06
3.043e-06
-3.4793e-06
9.28695e-07
3.89405e-06
-3.2906e-06
-2.44002e-06
2.08083e-06
-1.77955e-06
-2.78955e-06
6.85075e-06
1.64833e-06
6.48646e-06
-4.16561e-07
-2.43216e-06
4.1447e-06
5.333e-07
-4.20419e-08
-5.63103e-07
1.61674e-07
-5.31072e-08
-8.55967e-07
6.98473e-07
2.57627e-07
-3.54823e-07
-4.90755e-07
-9.74184e-08
4.46078e-07
-4.31012e-07
4.73852e-07
-4.35123e-08
-6.39792e-08
3.99513e-07
-7.39028e-08
-7.69913e-08
2.26568e-07
-3.4241e-09
-6.40745e-08
-6.88722e-08
4.22758e-07
8.13131e-08
-4.94655e-08
2.06231e-07
-4.79497e-08
5.50111e-08
1.75711e-08
-1.07382e-07
-3.4728e-08
-2.15002e-08
-6.20538e-08
-4.95071e-08
-3.58241e-08
2.07772e-08
-6.27392e-11
-2.69644e-09
4.46064e-08
6.16483e-09
-2.60517e-11
3.40442e-09
1.06029e-09
-6.79756e-14
3.98222e-11
1.3644e-11
2.9701e-14
1.13143e-12
3.58672e-13
-2.12593e-16
3.57932e-14
8.12015e-15
-6.8739e-17
2.12867e-15
6.71428e-16
8.7304e-16
8.0183e-15
2.66545e-15
-1.00507e-13
5.53391e-13
1.65037e-13
6.21025e-16
1.07501e-12
3.13182e-13
1.01997e-15
4.76686e-15
1.61753e-15
6.4693e-13
2.61377e-11
7.51299e-12
1.89071e-11
1.86212e-10
5.35242e-11
3.6112e-09
3.79042e-09
1.07558e-09
5.80277e-08
4.30306e-08
1.20539e-08
5.63702e-08
-5.2632e-09
-8.76287e-09
9.00649e-09
-1.34585e-09
-7.00177e-09
-2.49428e-08
1.77629e-08
1.9052e-08
-5.70218e-10
3.23996e-08
-5.53184e-08
2.62565e-08
4.48232e-08
-1.74637e-08
5.39361e-08
-5.87278e-09
-2.14297e-08
2.3923e-08
-3.64528e-08
1.4219e-08
-1.58198e-07
2.44208e-07
-9.14841e-08
2.12623e-08
1.55274e-07
5.73251e-08
3.77455e-07
4.60587e-08
-2.1368e-08
3.93546e-07
7.90929e-08
-9.2808e-09
7.23811e-07
8.62073e-08
-1.66824e-07
1.00279e-06
7.88868e-08
-2.87005e-07
4.90946e-07
-8.43334e-09
1.77475e-07
1.79607e-07
-7.28281e-07
1.78941e-07
-1.01092e-05
-1.00115e-06
1.61411e-07
-1.93988e-05
-4.76167e-06
-5.29252e-06
-6.97487e-05
3.56622e-06
1.00912e-05
-0.000133187
-6.5224e-05
-2.72566e-05
-0.000205832
-0.000138322
-7.9525e-05
-0.000814492
-1.58567e-05
-6.13147e-06
-0.000820881
-0.00127404
-0.0011554
-0.000810796
-0.00159866
-0.00122769
-0.00326583
-0.00167721
-0.00109198
-0.00203117
-0.00758522
-0.00513535
-0.00469501
-0.00944873
-0.0054025
0.000417251
-0.0205196
-0.010394
0.00573725
-0.0211633
-0.0106714
0.00220071
-0.0117737
-0.00369025
0.00308862
-0.00823251
-0.00348285
0.000785364
-0.0034958
-0.00104285
-0.000208637
-0.00348832
-0.00107713
0.00133736
-0.0164033
-0.00562515
-0.000429596
-0.00362116
-0.00265225
0.00258608
-0.00257006
-0.000432415
-0.00234431
-0.000964004
-0.000650876
-0.011
-0.0046291
-0.000541641
-0.0123955
-0.00307
-0.00218331
-0.00843441
-0.00234157
0.00165907
-0.0181498
-0.00674416
0.00032646
-0.00705081
-0.00218883
-0.000334731
-0.00503115
-0.00196263
0.000342561
-0.00604805
-0.0028593
0.000674538
-0.00369847
-0.00166418
0.000296685
-0.00122571
-0.000571989
0.000479788
0.000153678
-0.000305471
-7.14546e-05
4.57416e-06
4.91404e-05
7.82272e-05
2.7544e-05
4.36823e-05
1.18252e-05
-2.09031e-05
-8.91921e-06
-1.99422e-05
-1.10365e-05
5.47265e-06
-4.10871e-05
4.58387e-06
3.17664e-06
1.9237e-05
8.83531e-05
-7.82418e-05
-3.87317e-05
-1.84312e-05
2.0957e-05
6.11348e-06
9.68792e-07
9.40945e-06
4.49078e-06
-7.38468e-06
6.7178e-06
7.70337e-06
-9.79205e-07
1.64212e-05
-2.26256e-05
-1.74711e-07
1.84011e-05
2.33783e-06
-4.20025e-06
2.26596e-05
-2.72954e-05
5.27829e-06
-1.3575e-05
1.86121e-05
-0.000101426
-1.80497e-05
1.67404e-05
-1.38633e-06
-6.3108e-05
-7.41571e-07
8.52979e-06
-6.01729e-07
-1.194e-05
7.03665e-07
2.54899e-06
7.39652e-08
3.79447e-06
1.13279e-06
7.04672e-08
8.19984e-07
1.47689e-07
1.37581e-06
1.14645e-07
2.22956e-09
2.74154e-08
2.5989e-09
4.19155e-08
4.08024e-11
6.6411e-10
-8.19582e-15
1.61275e-09
3.11322e-15
1.31484e-11
-9.66775e-17
3.10823e-11
-3.34261e-17
1.48944e-16
9.73555e-17
3.05188e-15
-3.86127e-15
-6.40927e-17
4.84263e-17
3.95274e-15
-1.74075e-14
3.54009e-15
3.6197e-15
4.27547e-15
-7.61076e-14
8.05367e-14
2.23963e-13
1.79288e-13
1.62843e-13
1.42186e-13
-6.88887e-12
6.17403e-12
1.79545e-08
3.86013e-08
-2.47967e-06
2.40995e-06
8.46889e-07
1.07277e-07
-9.13623e-06
8.9878e-06
6.47805e-08
2.16331e-08
2.26254e-08
7.55397e-07
5.69197e-06
-6.64976e-05
1.02569e-06
5.42379e-05
-6.51147e-05
4.74517e-06
6.44203e-05
-0.000368611
-0.000599604
0.000276905
-8.74208e-09
-0.000889602
0.00102077
-0.000860301
-0.00423009
-0.000744137
-0.00264223
0.000342277
-0.000433553
-1.01953e-13
-0.00138752
-2.79495e-06
-0.000318457
1.50256e-06
-8.42906e-32
-1.57249e-14
1.09722e-07
-2.93545e-06
1.76018e-05
7.78136e-06
-2.59449e-23
-1.00762e-31
1.96642e-06
0.000316172
-0.000191319
0.000343937
-0.000593125
0.00011286
-8.20252e-05
0.000344538
-0.000289181
8.17722e-05
-0.000286959
-0.000329433
-0.000447807
-0.00113262
-0.000326709
0.00099513
0.000443621
-0.0025233
-0.00133284
0.00096792
0.00234169
-0.000812063
-0.00343217
0.00298688
-0.00649031
0.0053186
-0.00315165
-0.0209938
0.00607582
-0.00912544
0.00978343
-0.0131234
0.0127098
0.00254764
-0.00961486
-0.000626421
-0.000946183
-0.00255498
-0.00226842
-0.000400944
0.00934368
-0.00240678
-0.00259119
-0.000355249
0.00717327
-0.00267175
-0.00243649
-0.000145416
0.0066568
-0.00251794
-0.00221563
1.87744e-05
0.00647914
-0.00234152
-0.00311723
0.00019007
0.00624179
-0.00247598
-0.00240035
0.000264752
0.00573878
-0.00293415
-0.00166207
0.000586828
0.00505671
-0.00294531
-0.00287529
0.000662131
0.0052939
-0.00148082
-0.00395276
0.000643731
0.0075372
-0.00258158
-0.00464913
0.000598689
0.00352735
-0.00248474
-0.0057376
-0.00396965
0.0102859
-0.0032715
-0.00553103
0.000591716
0.0120961
-0.0194187
-0.0087644
0.000104681
0.00927538
-0.0112078
-0.00553024
-0.00469588
0.0106786
-0.00862697
-0.0046459
-0.000322098
0.00690226
-0.00434865
-0.0113542
-0.000320759
0.00289607
-0.00126823
-0.00226192
-0.000395586
0.00110166
-0.000449891
-0.000948451
-0.000100753
0.000371263
-0.000580237
-0.000187886
-5.58537e-07
5.24216e-05
-0.000155791
-7.43162e-06
2.11742e-06
-9.68752e-07
-1.55502e-06
-2.71184e-07
6.4665e-05
3.22918e-05
-9.41079e-05
-2.10082e-05
0.000389106
0.0013562
-0.00154291
-0.000522035
-0.000110401
0.00356434
-0.00308877
-0.000925305
-1.44332e-06
0.000391426
-0.000478453
-9.53298e-05
-1.12029e-06
-1.49856e-06
3.23589e-07
8.79661e-07
-1.36795e-06
7.81227e-08
1.03791e-07
5.85954e-09
-1.30684e-06
-1.95795e-07
2.42937e-07
1.37141e-08
-9.01364e-07
-3.77041e-07
-3.3981e-08
1.34404e-07
-8.64222e-07
-2.04998e-07
-1.1864e-07
2.82258e-07
-6.04057e-07
3.42624e-07
-2.39491e-07
-4.75859e-07
-9.08526e-07
-3.07568e-07
4.08255e-07
2.71912e-07
-7.18412e-07
-3.77546e-08
4.58643e-07
-2.22957e-07
2.52422e-07
-6.47765e-08
-5.63479e-08
5.06615e-08
-1.16698e-07
-1.30813e-08
-1.31238e-07
-3.35888e-08
6.01194e-08
1.12306e-08
-5.81819e-08
-3.95036e-09
-7.2216e-08
-2.45889e-08
1.52868e-08
3.24552e-09
-1.29661e-08
6.55776e-09
-9.90785e-09
-1.92819e-11
2.76831e-09
8.22021e-10
-8.22944e-10
5.2859e-12
-1.98343e-11
5.66434e-13
1.37847e-12
-1.13819e-12
-4.25284e-14
4.67246e-13
1.80956e-13
-7.86648e-14
1.31078e-14
-5.87455e-15
8.49788e-13
1.91377e-12
-1.8197e-13
-1.65932e-12
4.21374e-12
2.48528e-12
-3.312e-13
8.57227e-13
-2.97086e-13
1.20718e-11
1.49459e-11
-3.06277e-12
-2.66786e-09
1.47491e-09
1.22407e-09
-2.64696e-10
2.01845e-09
-8.57785e-10
2.89822e-08
3.4546e-08
-2.03497e-08
2.55938e-08
4.10139e-08
-5.25307e-08
1.46043e-08
4.26849e-08
-3.44201e-08
2.45138e-08
1.93307e-08
-9.68656e-09
-4.62834e-08
6.66213e-08
1.08301e-07
-1.03564e-07
9.92086e-08
-1.04147e-07
1.40862e-08
-4.99128e-08
1.24335e-07
2.86428e-07
-2.96154e-07
1.55008e-07
1.32623e-07
-9.89211e-08
1.60894e-07
1.13778e-07
-3.88783e-08
7.21625e-07
4.86135e-07
-9.69875e-07
1.22827e-06
4.60473e-07
-9.07063e-07
4.27722e-07
1.01823e-07
3.49428e-06
-1.42283e-06
1.90021e-06
-3.53462e-06
1.98668e-06
2.13905e-06
-1.60644e-06
-5.2941e-07
1.57502e-06
2.03135e-06
-5.0409e-06
5.27795e-06
-2.45428e-06
-6.20918e-05
-8.81536e-06
9.97215e-06
-0.000252984
3.38422e-05
-7.30195e-05
3.55749e-06
-0.00020171
6.57391e-05
-7.5921e-05
-0.00157415
0.000352116
-0.00460687
0.00119322
0.00460733
-0.00121986
-0.011231
0.00273851
-0.018297
0.005469
0.0254923
-0.0217786
-0.032989
0.01003
-0.0279642
0.0107453
0.0224984
-0.038745
-0.027581
0.01211
-0.00749755
0.00988775
0.00696255
-0.0209913
-0.00776324
0.00830184
-0.00384123
0.00479992
-0.012085
-0.0179352
0.00524308
0.00589392
-0.0196256
-0.00937062
0.00260964
-0.00260302
0.00222388
-0.00299991
-0.0133348
0.00295544
0.0190835
-0.022991
-0.00953643
0.00386664
-0.0060936
0.00394297
-0.00816707
-0.020309
0.00383316
0.009627
-0.0207132
-0.00776711
0.00420328
-0.0026468
0.00145781
-0.000798889
-0.0104237
0.00125389
2.33938e-05
-0.00591887
0.00108728
0.000122734
-0.00133956
0.000379065
3.04814e-05
-0.00028384
9.79901e-05
3.5878e-05
5.06447e-07
-2.89047e-05
2.49028e-05
8.20168e-06
3.48532e-05
-1.14614e-05
2.67204e-05
-4.60723e-06
-2.75178e-05
2.93854e-05
-1.8717e-05
-0.000115775
4.22346e-05
0.000284757
-0.000380236
-7.65263e-05
0.000142371
-0.000132937
-0.000107632
-0.000157002
-0.00069683
-0.000316292
-0.000245093
-0.000966587
-0.000604956
0.000906912
-0.00100066
-0.00017027
-0.000750457
-0.000305527
-0.00422436
-0.00142194
-0.00110522
-0.000327206
-0.0129948
-0.00581713
0.00508653
-0.00463151
-0.00056456
-0.00209917
-0.000630731
-0.00534823
-0.0113399
-0.00312955
0.00370227
-0.0362659
-0.0142453
0.0001049
-0.0168809
-0.00582146
-0.0012823
-0.0211239
-0.00720605
0.00532109
-0.0381506
-0.0164343
0.00130564
-0.01549
-0.00532954
-0.000347081
-0.0195649
-0.00745033
-0.000595737
-0.0220749
-0.00875194
-0.00102284
-0.0247926
-0.00883337
-0.000272031
-0.0254169
-0.00916412
2.18001e-05
-0.0251009
-0.00896872
4.11062e-05
-0.0251517
-0.00928464
-0.000395693
-0.0219532
-0.0088076
-0.00149096
-0.0202387
-0.00786111
-0.00544378
-0.0159423
-0.00564968
0.000915043
-0.0344515
-0.0164353
-8.14487e-05
-0.0175407
-0.00693528
-0.00342521
-0.0124178
-0.00497383
0.00273492
-0.028348
-0.0131779
0.000332749
-0.00909931
-0.00347855
-0.000238606
-0.00532083
-0.00267761
0.00105961
-0.00774857
-0.00430525
4.78447e-05
-0.00147976
-0.00031125
-0.000213143
-0.000913681
-0.000219323
-0.000223945
-0.00360225
-0.000962778
5.78577e-05
-0.000927261
-0.00194364
-1.70195e-05
-0.000938878
-0.000374272
4.04391e-05
0.000242909
-0.000298596
-4.6527e-05
4.64663e-05
2.7425e-05
-8.2312e-05
2.23259e-05
0.00013478
3.07028e-05
4.5432e-05
3.08019e-05
1.5433e-05
2.21953e-07
4.6861e-05
-1.05325e-05
-5.77749e-06
4.85306e-05
-1.83418e-06
-1.95197e-06
5.11573e-06
-2.02938e-05
-2.00799e-05
-9.35037e-07
-0.000245873
1.29884e-05
-0.000111167
-0.000108144
-2.49674e-05
-0.000182678
2.26823e-05
-0.000172538
-0.000177757
0.000106868
-0.000351302
0.000110448
0.000103098
-9.76395e-05
-0.000339276
4.36089e-05
0.000132123
-3.1585e-05
-8.11464e-07
0.000206845
-0.000151163
-0.000398058
0.000277833
-0.000223772
-0.000577718
0.000720427
0.00141869
0.00448261
-0.0015051
-0.00325593
0.00359656
-0.0140719
-0.00657976
0.0164633
0.00209765
-0.0106926
-0.0193241
0.0248237
-0.00466143
0.0194495
-0.0112762
-0.00754485
-0.00360086
0.00520859
-0.0101664
-0.00291732
0.00161459
-0.00775703
-0.0160524
0.00942733
0.00103266
0.0112689
-0.00807747
-0.0041927
-0.001057
0.0059051
-0.00390706
-0.00311107
-0.000625894
0.00113085
-0.00293344
-0.0014216
-0.000541992
0.00297974
-0.00573687
-0.00300552
-0.000540423
0.00264002
-0.0054153
-0.00256933
0.00314397
0.00647981
-0.00544851
-0.0106186
4.47199e-05
0.00478712
-0.00563529
-0.00216603
6.62787e-05
0.00130383
-0.00541517
-0.00231854
0.000150556