/*--------------------------------*- C++ -*----------------------------------*\
  =========                 |
  \\      /  F ield         | OpenFOAM: The Open Source CFD Toolbox
   \\    /   O peration     | Website:  https://openfoam.org
    \\  /    A nd           | Version:  7
     \\/     M anipulation  |
\*---------------------------------------------------------------------------*/
FoamFile
{
    version     2.0;
    format      ascii;
    class       volScalarField;
    location    "19";
    object      p;
}
// * * * * * * * * * * * * * * * * * * * * * * * * * * * * * * * * * * * * * //

dimensions      [1 -1 -2 0 0 0 0];

internalField   nonuniform List<scalar> 
15142
(
-4.21199
-1.82959
-1.08222
-1.26368
-1.22167
-1.18063
-1.07735
-1.02261
-0.975127
-0.995924
-0.958253
-0.901624
-0.840159
-0.831474
-0.809988
-0.793618
-0.803509
-0.781361
-0.7515
-0.762506
-0.712014
-0.692451
-0.707012
-0.666906
-0.642219
-0.643071
-0.68
-0.701381
-0.701325
-0.560319
-0.58081
-0.594852
-0.496433
-0.354333
-1.14981
-1.57397
-1.64403
-0.332654
1.70589
-2.39336
5.66958
14.726
14.0862
69.892
204.599
398.495
932.797
2182.9
2791.21
4190.38
4968.71
4664.25
4697.5
3230.91
2709.2
2173.53
1916.57
1660.46
1583.92
1312.63
1229.19
1487.55
1173.46
1256.35
926.483
890.064
395.121
174.711
93.6316
44.7325
17.418
29.8414
35.3624
27.3468
50.7706
137.477
283.958
422.208
844.433
1056
2098.44
3040.78
3635.86
4625.53
5583.79
5965.76
7229.8
6604.16
6646.06
6399.04
5926.52
5913.75
6200.65
6492.5
6269.08
6639.54
5150.23
4555.26
3544.02
2489.54
2168.85
1339.88
904.562
647.716
431.598
385.224
139.349
65.9055
73.0694
61.8393
34.4848
50.8661
168.855
386.098
770.688
1279.26
1988.89
1301.27
1056.27
680.913
877.586
879.795
696.242
936.457
957.166
771.712
969.135
949.834
573.973
534.987
318.158
545.4
715.776
1222.43
1743.52
2683.86
2228.18
2206
2588.1
2047.11
1985.92
1202.61
711.203
485.232
214.577
89.76
38.4939
15.877
7.92844
10.9464
11.1149
18.319
38.6589
92.2336
155.691
100.722
48.7676
19.0885
1.94542
-3.05374
-1.19903
-1.32586
-2.21142
-3.52606
-6.04926
-12.7758
-3.01262
-1.03092
12.6438
45.3085
79.3066
14.8541
38.3267
16.8434
6.07327
-0.634768
-2.31757
-3.47958
-5.21789
4.9144
11.5264
35.8461
-9.77111
72.1871
75.3102
336.46
227.211
526.131
477.222
829.134
478.771
797.725
679.681
741.339
438.703
623.01
632.408
620.411
499.776
379.335
297.006
264.682
343.318
309.401
270.442
326.676
229.784
-88.2165
235.486
189.237
70.2763
-89.5535
210.541
206.857
103.741
27.1392
322.215
253.343
427.559
404.547
466.973
294.969
126.217
11.4798
9.03743
-66.4978
5.81434
-5.30626
15.4509
18.9327
14.0766
8.2713
7.82175
-9.46927
-2.23173
62.2496
185.897
241.003
98.1649
119.707
158.772
57.3081
83.4835
135.534
56.2713
93.5443
163.388
87.1836
151.663
112.019
192.786
160.911
283.994
236.95
476.505
380.033
200.715
94.0397
128.618
60.7374
89.8644
41.9703
64.5819
33.1366
56.1371
33.7713
-13.5235
-1.19256
-14.6048
6.55445
5.29712
32.4979
136.847
277.828
532.766
312.349
171.186
33.907
59.871
131.056
223.937
70.0576
43.56
27.8474
0.90359
4.39434
14.6037
16.0903
26.8684
8.22445
7.36658
-1.20948
-1.39724
4.84253
-8.74407
-16.0676
-17.2388
-8.89896
-4.11759
-1.00853
4.59071
-5.46009
-15.3688
-15.0663
16.3045
17.1507
55.8827
33.4575
-39.374
0.732684
26.1822
1.00816
-8.53381
-11.9627
-10.4479
-7.42725
-8.36533
-7.07249
-9.24326
-4.80405
-5.79389
-7.70288
-5.33265
-2.64558
-2.54129
-2.59715
-5.41239
-7.69196
-8.80457
-7.3765
-6.02817
-5.01858
-3.29618
-3.02197
-2.83049
-2.65932
-2.61187
-2.7204
-2.85296
-2.83022
-2.64166
-2.4385
-2.30516
-2.21548
-2.19546
-2.18552
-2.11078
-2.07054
-2.00493
-1.92568
-1.92142
-1.89905
-1.88179
-2
-2.16502
-2.14494
-1.97331
-1.88626
-2.03962
-2.13417
-2.20534
-2.48788
-3.16628
-3.43427
-4.36671
-6.35351
-5.96729
-7.49413
-7.97587
-5.47781
-11.9485
29.8556
173.958
372.794
1256.62
2618.31
4368.65
7129.33
9129.22
9511.18
8048.11
5599.82
4005.81
3813.46
3446.25
3007.48
2699.49
2477.05
3081.59
3585.15
2899.71
2903
2540.8
1716.08
815.312
305.596
84.4105
75.5059
25.7653
30.2088
39.345
28.1096
82.5557
235.531
402.891
549.397
1841.65
2254.89
3507.08
5925.8
7306.27
10620.5
10472.4
11105.4
13449.9
12218.6
12628.3
13080.9
12799
12700.5
12917.1
12325
11877
12758.9
9703.23
9329.88
8149.15
5276.58
4494.64
2964.83
1642.9
1220.85
962.661
800.231
335.991
166.581
91.8133
95.383
90.7964
140.549
494.213
605.539
1795.23
2913.65
3106.81
2495.45
2543.02
1832.11
2055.24
1884.06
1636.81
1939.1
1740.46
1647.81
2383.28
2173.93
1854.18
2016.77
1968.56
2295.07
2735.29
3132.14
3861.6
5187.56
4212.02
4785.61
5452.68
4254.15
4117.54
2844.3
1130.15
697.035
283.102
85.8028
30.9093
4.60455
0.143295
7.81912
6.36259
1.41827
25.2145
50.4903
137.911
58.4825
3.72875
-2.80514
-9.94457
-6.84819
-4.69472
-4.58177
-3.45643
-3.41742
-5.00486
-5.60736
-7.66931
-10.2413
-13.7488
-11.1435
-13.4922
-11.039
-10.937
-8.48512
-7.09107
-6.08952
-5.43568
-4.21681
-4.19811
-4.24925
-4.23521
-4.35731
-4.22922
-3.7585
-3.55269
-3.4203
-3.52477
-3.44878
-3.27324
-3.35634
-3.21825
-3.01522
-3.10531
-3.02308
-2.89984
-3.0928
-3.3566
-3.34445
-3.48989
-2.48066
-3.38918
-3.13074
-3.21184
-3.7379
-2.94838
-4.35345
-4.22459
-4.91797
-5.87677
-7.66305
-5.87473
-6.8957
-9.09326
-6.78484
-23.2377
17.3341
143.364
297.819
1412.88
2811.71
5116.34
9491.8
12825.1
14359.7
11059.8
7458.82
5438.33
5245.36
5125.19
4859.55
5239.36
4731.52
4076.78
5305.24
5581.31
5007.62
4627.84
4021.14
2584.72
1266.09
387.293
84.0922
73.9703
68.6776
43.8202
41.7059
37.6122
40.7446
25.3934
7.16774
5.83111
4.20104
4.77021
1.17141
-0.356401
7.92297
3.83732
0.465202
-3.69436
-2.00851
-5.99976
-13.6516
-25.1154
-25.4483
-24.524
-27.7182
-32.2881
-23.306
-20.548
-25.4252
-28.3282
-25.5871
-14.9969
-39.501
-19.3266
2.6847
-37.9768
-26.6662
-23.3986
-31.6869
-24.4372
-30.5658
17.82
23.3528
44.1101
72.3255
143.474
140.14
-302.96
-526.022
-401.201
-493.079
-497.583
-501.624
-574.196
-549.333
-667.235
-690.282
-820.179
-855.993
-959.786
-951.611
-1027.45
-936.173
-681.381
-388.362
-194.035
-69.4381
-33.5994
-18.6759
-10.2407
-14.1923
-49.5954
-73.0645
-64.8654
-17.4125
-25.6572
-20.5731
-16.35
-13.324
-11.6957
-10.2341
-8.20987
-7.16809
-6.24966
-5.40549
-5.98617
-5.3249
-5.71802
-4.85768
-5.41026
-4.48032
-4.73647
-5.21242
-4.31705
-4.61994
-4.94783
-4.029
-4.20047
-4.60551
-3.80935
-4.04824
-4.25245
-4.31873
-4.41265
-4.55292
-3.93184
-4.27234
-4.89739
-4.7788
-5.19556
-5.79035
-7.11781
-8.54418
-9.02659
-11.4931
-16.6986
-8.0333
-19.512
-8.1818
-12.4142
121.859
1370.68
1522.77
6486.15
6119.05
11413.6
7429.11
9326.48
5154.21
5329.9
4058.67
2828.94
4352.43
2668.02
2500.74
4735.95
3673.43
2447.89
4114.85
2516.78
899.36
200.165
28.3476
1.0235
18.2473
18.5907
12.7739
17.2631
84.7945
114.368
341.667
662.861
1391.26
1317.44
3243.82
4673.3
7690.24
6591.46
9854.28
12044.7
15644.1
14891.4
16106.2
18324.2
16933.4
17697.2
20062
20998
20752.3
19945.8
17204.1
16730.2
17623.3
14403.2
13586.3
12351
8743.25
6860.22
4544.13
2483.11
1810.64
1444.91
1360.74
658.066
290.309
182.173
215.518
102.99
32.8682
10.6204
39.4475
29.4437
15.9252
28.2106
51.3426
16.3263
30.8626
111.799
75.4985
16.8102
7.1885
9.23432
51.9889
276.154
940.953
1483.11
766.027
606.418
746.927
909.068
640.387
601.143
420.304
401.032
737.518
709.623
765.798
746.758
772.038
1082.39
1116.26
1601.31
957.514
1014.59
1511.39
1603.26
1620.33
460.347
56.7582
42.3339
6.30081
-11.802
-21.1814
-13.5383
-14.495
-25.0556
-33.1939
-11.5336
-13.9929
-22.1535
-19.3
-13.832
-16.6252
-18.4069
-14.7257
-12.2933
-11.2152
-12.1632
-13.2106
-15.0224
-12.994
-11.2894
-9.97674
-8.44665
-7.13085
-8.30861
-8.12583
-6.82384
-7.94785
-7.74328
-6.52022
-7.5305
-7.27805
-5.91302
-6.36952
-7.35285
-7.02974
-5.76893
-6.59412
-6.27739
-6.58662
-5.27216
-5.65579
-6.52311
-6.20883
-4.97817
-5.11904
-5.23097
-5.4027
-5.563
-5.75949
-5.95132
-6.14547
-6.60448
-7.29751
-9.00549
-9.60711
-9.28604
-10.3184
-12.1981
-16.0599
-17.1891
-25.8065
-25.4685
-32.5145
-19.296
264.702
156.883
667.394
1677.63
968.343
1648.45
4036.36
1959.26
1588.55
3376.25
1666.44
1511.94
2858.42
1479.91
613.237
906.884
1929.87
967.44
1572.82
871.572
1813.52
1094.76
379.302
504.827
1081.64
338.094
94.3506
10.8602
-3.96017
3.8835
8.29165
48.3893
184.383
313.081
795.375
2126.46
1337.88
535.307
324.247
500.602
627.237
1094.75
2488.66
2956.13
7999.63
5534.97
7319.22
12138.4
8840.62
5792.48
3419.63
3421.07
3137.65
3186.53
5692.76
8828.22
13364.4
17197.4
13407.3
18502.2
12810
8042.39
4914.46
4935.63
4900.87
4901.32
8210.75
12578.8
16907.9
10407.5
8570.14
9678.17
7405.59
6856.6
7229.09
5229.46
3420.39
3304.72
3534.57
2008.05
1213.11
732.039
435.471
124.588
19.0005
-27.0058
-18.4697
-14.253
-14.6476
-1.83923
-31.5865
-7.76657
4.86816
45.3761
49.7145
93.4856
189.437
166.83
-361.639
-607.448
-461.536
-492.514
-492.196
-486.879
-593.069
-1076.85
-1302.99
-1401.01
-1139.85
-1499.55
-1541.01
-1859.13
-2220.33
-2038.77
-2093.28
-1960.45
-1758.04
-1182.28
-673.394
-409.75
-146.288
-110.972
-44.6532
-126.611
-305.556
-1451.4
-345.064
-35.1092
-26.2272
-27.9189
-23.203
-20.5179
-17.8577
-15.1423
-12.9941
-11.0049
-9.71559
-10.5971
-9.2819
-9.99383
-8.79088
-9.29199
-7.78342
-7.91914
-8.58407
-10.157
-8.53978
-8.96055
-7.69911
-8.10043
-8.47549
-6.9948
-7.1765
-7.64904
-9.06905
-7.62141
-7.87323
-6.4468
-6.63418
-6.84569
-7.03711
-7.30947
-7.48917
-7.7954
-8.22539
-9.64069
-10.247
-12.9148
-14.2554
-12.6231
-14.4841
-14.1209
-13.8132
-17.5451
-17.6198
-22.949
-19.8702
-277.141
-27.3307
-20.7266
195.84
-363.094
-1148.55
-1114.54
-1606.8
-506.163
-598.471
89.2694
-155.79
533.011
210.703
47.5334
-286.301
26.2198
-171.897
159.772
-125.222
-195.55
397.254
118.905
51.7522
-329.923
-87.303
-139.525
184.467
42.7304
-1.79786
-19.3454
-4.49283
1.11346
24.9064
121.41
-33.5
-30.8422
-9.61843
-8.50493
-8.99596
-23.4983
-92.8344
-160.114
-340.65
-537.33
-248.489
-85.7525
-38.1938
-16.4135
-20.0049
-20.9988
-68.4966
-137.273
-259.243
40.9945
147.931
143.705
204.368
296.82
476.349
846.217
592.125
824.216
1497.16
871.687
841.334
531.424
368.158
612.576
426.703
221.322
136.172
119.143
79.2524
48.4329
37.4372
13.4066
8.56526
-10.7437
-33.2085
-62.9862
6.01618
-23.791
-24.0765
-28.6025
-23.9724
-24.286
-23.2477
-53.2078
-4.9997
-17.4088
-22.4066
-34.066
-67.1514
-51.2801
-68.3274
-299.232
-307.951
-422.975
-421.98
-2624.53
-3240.41
-2747.89
-2478.61
-1557.94
-1533.28
-2535.03
-2253.7
-1294.65
-889.831
-447.576
-261.898
-108.856
-48.6474
-74.197
-69.7748
-55.2291
-54.1237
-45.496
-42.3743
-38.2888
-32.7671
-28.8614
-25.3096
-21.4075
-18.1416
-15.4947
-12.8225
-10.4704
-11.0991
-12.4771
-11.7809
-9.53537
-9.82432
-8.18296
-8.3848
-8.59436
-8.87374
-9.0653
-9.43296
-11.409
-11.9644
-14.7929
-16.9921
-16.3063
-18.845
-15.2016
-31.6864
-22.0944
-37.8311
-245.146
-259.84
-779.52
-1473.45
-1897.14
-1735.8
-1285.75
-1117.99
-595.562
-724.466
-1358.19
-974.994
-435.59
-580.079
-334.448
-500.422
-591.423
-869.189
-909.907
-374.918
-121.511
-0.825512
-56.1238
-43.31
-48.557
-155.773
-270.092
-613.655
-1017.63
-521.963
-772.404
-344.297
-267.109
1722.7
3559.87
755.202
-672.743
-950.727
-1375.81
-1857.72
-2310.09
-2380.27
-1467.65
-1263.84
428.237
1578.15
566.96
1534.24
-51.0135
1465.8
5406.2
2952.03
1422.01
-562.185
-1561.97
-2055.5
-2774.83
-2982.31
-3197.17
-3220.37
-2311.22
-1832.73
-672.528
1365.37
2938.72
3346.3
5768.18
8087.58
8169.27
6377.53
5385.85
3458.46
2091.76
1182.89
713.988
447.011
164.789
135.015
25.6835
-15.0797
-54.506
0.161087
-20.2454
-15.7304
-17.9817
2.62463
-24.1006
-1.50804
-18.4398
-99.3578
-282.568
-559.774
-1242.56
-1658
-1950.5
-2196.2
-2536.12
-2865.72
-2997.09
-2697.04
-2129.71
-1356.12
-731.208
-218.199
-628.499
-1068.43
-2496.2
-922.596
-134.554
-44.1626
-40.9581
-34.7148
-31.8785
-29.8765
-27.5661
-24.4254
-21.5604
-19.2922
-16.0592
-13.4391
-11.2278
-12.3679
-14.0823
-13.5448
-11.0011
-11.9075
-9.82591
-8.18373
-8.80114
-9.4002
-10.1553
-12.4358
-14.4355
-14.8541
-12.2747
-12.5135
-10.1263
-10.3688
-10.611
-11.007
-13.5422
-14.3473
-16.8845
-17.0523
-19.9186
-21.9311
-19.6405
-22.7734
-32.5405
-22.3878
-106.715
-356.954
-926.442
-2349.77
-517.311
-1678.25
-1853.08
-2640.89
-1950.97
-2109.61
-1711.42
-1460.78
-1981.66
-1762.08
-1625.42
-1486.02
-1211.27
-1214.43
-952.738
-1077.21
-1236.03
-1349.6
-1311.89
-1036.57
-829.893
-788.118
-347.621
-145.655
-15.1047
-118.167
-70.9741
-113.569
-364.305
-708.56
-1016.13
-469.327
-159.098
-330.434
-631.885
-1313.46
-1838.36
-1283.53
-1992.4
-1759.05
-2437.42
-1328.66
-470.535
-313.312
-370.799
-638.866
-2908.79
-3367.5
-3715.02
-3965.92
-3531.44
-3831.89
-4099.44
-4456.79
-4960.64
-3989.62
-4393.04
-4118.59
-1195.85
-1332.65
-1389.76
-4278.43
-3351.87
-3298.73
-2523.79
-1868.04
-648.094
1310.09
4773.56
4714.36
7842.31
12953.9
17971.2
9354.28
7196.35
6965.26
6688.77
4836.73
3138.52
3162.5
3382
1876.48
1046.93
600.119
344.181
87.9094
-15.4161
-7.32711
-12.8276
-0.794433
-2.419
-12.6742
0.93365
88.2306
146.341
299.344
284.89
-335.268
-552.742
-549.072
-646.971
-614.233
-642.744
-712.233
-1273.27
-967.005
-1168.28
-1669.75
-1846.94
-1218.24
-1434.43
-1232.29
-1305.04
-1334.18
-1306.11
-1578.77
-1393.6
-1627.3
-1512.9
-1578.52
-1283.92
-1031.55
-608.637
-310.274
-66.5542
-291.415
-546.796
-940.397
-504.564
-37.8495
-17.4218
-34.1327
-30.0464
-27.8899
-24.4995
-22.2409
-20.2413
-17.1144
-14.5044
-12.1261
-10.1192
-11.2107
-8.00988
-2.88543
-1.73281
-1.51682
-1.34979
-1.24551
-1.1684
-1.17477
-1.19753
-1.31433
-1.56319
-1.48449
-1.62358
-2.95904
-3.65621
-3.55473
-2.93519
-3.67461
-4.09225
-4.37528
-5.47665
-5.79765
-6.68326
-7.48549
-9.8537
-9.75803
-8.66945
-8.6049
-9.47688
-10.7648
-12.7578
-14.7932
-17.2617
-17.4933
-20.2983
-22.4464
-25.3742
-28.0491
-29.4798
-35.7828
-36.9804
-63.2571
-663.4
-477.692
-282.902
-24.292
-198.511
-395.412
-831.755
-1240.93
-1259.86
-1550.5
-1820.71
-1794.46
-2082.62
-1770.99
-2232.14
-1645.86
-1894.93
-1658.2
-1638.07
-331.448
-336.856
-262.242
-1571.88
-1266.75
-1270.39
-1352.26
-1321.03
-1418.65
-1512.51
-1818.33
-2760.5
-3485.29
-3188.45
-3737.52
-3682.63
-3735.34
-3040.96
-2626.85
-2071.52
-1377.3
-827.322
-1335.36
-1965.27
-3382.59
-1225.28
-192.684
-39.7494
-44.2942
-38.3658
-36.7781
-34.3348
-32.0589
-29.6193
-27.0442
-23.6742
-20.5289
-17.6759
-14.8832
-15.3841
-15.2983
-16.3748
-18.79
-16.5113
-17.4201
-14.4683
-13.4883
-13.2458
-14.0099
-16.073
-13.551
-16.7131
-17.5431
-17.7665
-15.2557
-15.4769
-12.9107
-13.1353
-15.6595
-16.1512
-18.4224
-19.7841
-21.9486
-23.0323
-22.5422
-23.0293
-35.4991
-22.279
-21.4399
-26.4428
-35.4989
-57.4538
-151.299
-468.828
-586.11
-3432.38
-3676.95
-2878.28
-2882.13
-2108.96
-1590.11
-1282.62
-1157.86
-1343.41
-1132.57
-959.014
-1050.48
-1065.88
-898.259
-544.744
-366.412
-79.9996
-218.556
-368.127
-76.6438
-742.27
-1052.1
-1222.29
-1371.47
-1240.57
-1201.87
-1316.67
-1280.77
-1672.23
-1816.71
-2384.04
-2010.86
-1887.86
-1602.17
-815.271
-670.906
-577.409
-528.117
-450.039
-458.128
-364.009
-164.443
-148.653
-111.911
-17.2606
-104.978
-83.4646
-641.667
-1260.96
-1460.4
-719.169
-451.085
-118.424
-864.117
-951.051
-280.782
-706.098
-1124.7
-2070.2
-2737.98
-2306.22
-3321.83
-2644.8
-3221.75
-4365.77
-4601.48
-3458.04
-3588.72
-4548.25
-5189.78
-5812.14
-6041
-5597.6
-4949.24
-1603.94
-1298
-1190.7
-894.015
-843.23
-799.422
-1680.79
-5477.13
-4252.7
-4222.58
-5088.39
-5973.94
-6742.56
-7027.81
-6679.33
-6333.06
-2215.26
-2212.36
-2689.76
-6903.25
-6313.89
-6322.53
-5823.4
-5725.19
-6195.31
-4930.79
-5029.84
-5002.57
-4430.7
-4212.88
-3200.29
-3005.53
-2332.22
-1657.6
-153.028
1259.22
4886.44
2765.7
2614.34
4718.95
7939.43
12459.3
16862.2
7524.12
7573.87
4679.15
5502.15
4001.29
2675.06
1417.9
778.024
345.015
144.463
58.7608
17.5888
-5.68138
-3.05187
-3.57857
-5.39229
0.254198
-12.3422
-14.7766
-17.6001
-36.7256
-88.3831
-217.231
-465.594
-829.426
-930.801
-1266.92
-1530.16
-1566.47
-1892.18
-1444.99
-1549.45
-1362.09
-1293.93
-1504.07
-1728.73
-2622.36
-2258.83
-2880.62
-3188.96
-3476.25
-3997.16
-3682.56
-3596.42
-3244.4
-2907.52
-2444.34
-2215.48
-2001.47
-1529.21
-1122.65
-1239.85
-1966.12
-3779.29
-1708.55
-508.316
-37.5564
-34.8854
-21.5214
-39.2458
-37.9978
-37.9705
-34.4375
-31.9646
-28.8235
-25.0023
-21.9154
-24.3009
-23.517
-20.451
-22.4083
-22.0236
-23.3148
-26.7404
-22.6472
-19.111
-19.9543
-21.8506
-20.8344
-21.0357
-21.2126
-18.1765
-18.2068
-21.0833
-20.8602
-23.1713
-25.7996
-32.3092
-30.6145
-21.6297
-17.8066
-20.4222
-201.33
-280.359
-394.394
-1623.86
-1784.16
-2116.58
-3176.26
-2883.05
-3723.15
-2704.67
-2331.69
-2999.95
-2547.11
-2489.81
-2022.8
-2300.9
-1406.63
-2314.45
-1976.66
-1468.41
-1766.19
-2645.92
-2505.29
-2829.24
-3034.39
-3221.53
-3485.22
-3921.42
-4358.39
-3407.99
-3116.23
-3629.17
-3034.29
-1772.11
-775.474
-269.787
-78.2926
-208.612
-368.958
-1373.63
-2783.35
-3263.01
-4040.96
-5093.46
-4563.94
-3357.8
-3814.67
-3113.86
-2940.14
-2948.51
-2379.24
-2200.84
-1871.14
-1488.63
-1508.16
-1197.02
-433.921
-1033.33
-1651.41
-2911.48
-3790.05
-1117.91
-707.256
-301.709
-302.171
-239.293
-107.729
-95.9176
-74.9629
-141.13
-54.0779
-13.8074
-7.68625
-21.6658
-26.0634
-48.8632
-2.38763
-36.2851
-63.2609
1.77573
-56.9391
-343.938
-1942.36
-3011.88
-7677.31
-7534.73
-7121.34
-6502.91
-6177.95
-6937.2
-7129.3
-8274.89
-8173.73
-8536.67
-8533.45
-8888.46
-8893.53
-8460.72
-6801.61
-6911.17
-7821.72
-2814.46
-3867.29
-9222.73
-9380.33
-8694.5
-8382.7
-7712.68
-8242.46
-7535.38
-7081.23
-5598.65
-5633.8
-6551.91
-2400.23
-3286.91
-2926.38
-3679.89
-8662.33
-8580.1
-8026.35
-7500.34
-7246.51
-7425.6
-3007.63
-2248.71
-2508.34
-1449.28
-612.66
-229.456
-1239.29
-1650.18
-1973.69
-2163.5
-2052.71
-6093.68
-6191.62
-4868.95
-4832.31
-4350.64
-3724.55
-4230.19
-3802.93
-2882.17
-2533.48
-2100.11
-1366.66
317.37
2502.52
2318.89
4109.54
7299.3
11023.2
5575.23
3243.97
2107.33
1039.5
381.03
332.329
652.095
1368.71
2276.49
5085.3
1589.68
1358.48
2109.85
4709.66
3882.56
4194.6
2802.97
1896.83
694.669
1623.01
3003.56
6022.29
4366.88
1252.04
487.88
244.38
91.4798
25.8821
3.94972
-3.1263
-4.14499
-0.759435
-2.97773
-7.26617
-8.23657
0.333893
42.8425
20.7016
-12.6216
-38.8911
-119.186
-90.0776
-130.813
-142.19
-288.835
-249.149
-709.412
-1015.7
-873.185
-1110.28
-1335.4
-1379.55
-1596.63
-1546.01
-2089.77
-2593.62
-2653.46
-3325.46
-3506.61
-3714.58
-3387.37
-2806.66
-2217.08
-2199.23
-2246.74
-2673.92
-2351.85
-2837.52
-3041.6
-2675.03
-1723.31
-1246.49
-1274.76
-1780.45
-2974.87
-1245.51
-771.174
-264.544
-109.83
-28.1691
-46.9153
-46.9657
-42.5245
-41.4741
-39.4187
-34.3175
-30.9781
-27.9851
-24.488
-25.5722
-26.8606
-30.6867
-32.8103
-31.5406
-27.2878
-23.3809
-24.1891
-24.7081
-27.7672
-24.6034
-24.5215
-24.6388
-24.3489
-27.6532
-25.2759
-27.05
-29.5867
-36.6437
-152.567
-125.488
-386.627
-1383.93
-3178.75
-4069.35
-3094
-4508.52
-4248.25
-3637.1
-3635.93
-3441.84
-3111.67
-2815.66
-2621.07
-2521.97
-2220.98
-2361.25
-2255.33
-2449.52
-1973.75
-1705.82
-1949.25
-826.09
-591.029
-1424.04
-2269.79
-3299.36
-4171.31
-2897.23
-1917.77
-2361.65
-3397.52
-4559.7
-5735.47
-4048.08
-2954.16
-1807.64
-3251.07
-2899.66
-3442.12
-3515.79
-2256.24
-3586.37
-4815.23
-6204.11
-6555.86
-4843.15
-3690.24
-2416.27
-3399.7
-3618.46
-3559.27
-2617.38
-2793.44
-3508.24
-3616.64
-3798.64
-4189.5
-4158.1
-3409.31
-4515.96
-4607.65
-4841.09
-4241.75
-5052.32
-5485.85
-5509.78
-5133.24
-4045.96
-3694.96
-1968.79
-3174.85
-704.733
-719.95
-1338.79
-4184.63
-1079.87
-1450.44
-1074.09
-1214.44
-4557.45
-4843.1
-4896.32
-4676.21
-4113.75
-3590.36
-4205.09
-3333.97
-3317.58
-2303.85
-3577.13
-4780.35
-6232.8
-2244.47
-1917.73
-2350.66
-1555.76
-1174.63
-690.57
-1157.04
-1684.07
-4472.68
-3244.62
-4104.69
-3820.98
-3413.47
-3363.17
-2887.68
-3988.2
-2770.32
-4255.41
-5342.66
-5467.2
-5033.62
-4499.73
-3144.75
-3709.46
-1226.83
-1037.91
-439.549
-729.036
-1010.56
-2936.7
-4340.56
-4641.89
-5706.4
-6191.94
-5903.12
-5879.26
-6663.5
-6741.78
-7125.12
-3060.64
-2477.98
-2231.09
-1959.41
-2410.85
-2011.64
-5082.48
-5405.35
-5333.44
-5762.88
-6248.94
-6826.36
-6752.13
-6878.95
-7318.57
-7020.04
-2761.41
-2659.66
-2451.8
-2323.62
-5486.24
-5387.88
-5836.26
-6486.65
-6311.79
-5650.67
-5876.31
-6606.06
-7177.87
-6895.07
-2729.69
-2609.57
-2298.09
-1893.08
-5193.74
-4548.27
-4331.38
-4513.15
-4707.28
-4161.35
-2868.37
-3461.53
-3812.5
-2809.25
-2576.46
-3220.59
-3048.83
-2417.48
-2731.75
-2897.1
-2314.96
-1744.34
-1695.18
-2532.47
-2283.23
-1996.2
-1934.3
-1097.73
-534.212
-326.033
-280.668
-146.987
-96.7737
-83.0361
-86.7046
-75.5413
-69.4476
-58.5289
-53.585
-45.164
-40.2085
-34.675
-35.1721
-36.4268
-41.7911
-37.4681
-37.4383
-32.1435
-32.0477
-27.9205
-27.8781
-31.8269
-31.8774
-35.75
-34.5664
-40.8149
-50.0305
-225.116
-477.403
-1522.35
-1902.13
-3239.25
-3743.37
-4389.23
-3868.98
-3739.57
-4426.81
-3796.37
-4005.88
-4159.49
-3977.42
-3006.12
-3155.05
-3526.65
-3080.54
-3942.41
-3655.49
-3441.41
-3805.07
-2990.36
-4041.58
-4350.5
-4554.33
-4546.13
-1481.48
-1828.48
-1443.5
-4462.01
-3540.81
-2734.4
-3805.97
-4300.92
-4663.15
-4949.25
-5153.55
-5310.32
-4979.03
-4838.64
-4326.61
-3647.25
-2587.98
-2930.33
-2274.11
-2882.85
-2576.54
-2403.86
-2576.94
-2200.59
-1842.79
-1386.58
-1243.31
-1573.34
-1732.37
-1218.46
-953.99
-814.883
-689.289
-354.388
-336.96
-220.043
-30.57
-36.6689
-97.4824
-97.8676
-91.625
-79.9882
-72.4621
-62.0307
-55.3538
-47.3783
-44.1796
-42.2096
-41.5211
-37.2813
-36.2964
-39.6993
-37.2456
-23.5847
-49.6682
-166.885
-318.77
-1058.04
-944.995
-1392.64
-2614.87
-2344.47
-2320.58
-3561.68
-3188.73
-3272.34
-3039.05
-3570.97
-3928.28
-3387.04
-3516.11
-3381.5
-3270.24
-3161.33
-3153.4
-3253.96
-2652.71
-3132.26
-3130.23
-2618
-2423.39
-3305.93
-3483.84
-4034.42
-4052.52
-4237.15
-1931.93
-1732.68
-1466.87
-1432.16
-3225.89
-3544.9
-3368.49
-3648.08
-3589.05
-3897.94
-4319.71
-4497.84
-4124.55
-4074.35
-4251.57
-1804.72
-1581.73
-1385.63
-3602.73
-3146.32
-2312.69
-2370.72
-2561.42
-1669.4
-2387.97
-2251.23
-1696.08
-2042.06
-1608.77
-1296.83
-1128.14
-1472.03
-1390.28
-1465.53
-995.429
-910.049
-835.278
-624.727
-639.716
-324.543
-71.3549
-264.868
-180.246
-171.094
-142.246
-109.447
-99.7553
-82.9968
-69.3912
-62.411
-54.5916
-49.0088
-47.7991
-44.5295
-45.1963
-31.5114
-118.525
-235.041
-462.851
-759.176
-954.213
-1300.88
-2365.5
-1955.19
-2131.55
-2092.31
-2858.1
-3385.82
-3310.71
-3394.3
-3966.45
-3636.93
-2976.82
-3102.04
-3274.83
-2678.78
-2562.11
-2863.64
-2776.74
-2619.7
-2294.94
-3022.48
-2981.28
-2843.86
-3174.65
-3236.77
-3248.04
-3230.47
-3333.65
-3196.89
-3609.87
-3413.59
-2929
-2270.42
-2423.45
-2627.22
-1381.29
-1677.28
-1716.84
-1442.21
-1968.51
-1761.35
-1403.49
-1254.51
-1681.1
-1491.22
-885.272
-631.127
-830.451
-385.416
-494.933
-581.46
-450.465
-622.723
-617.128
-596.66
-480.964
-300.696
-297.801
-191.5
23.7069
-71.5412
-79.2032
-82.1227
-76.4841
-63.6333
-53.7691
-47.4444
-48.6887
-54.5973
-140.655
-189.405
-283.668
-564.38
-750.872
-824.597
-1047.21
-1174.35
-1755.24
-2406.46
-2156.35
-2754.11
-3003.77
-3301.85
-2740.1
-2783.14
-3143.37
-2782.37
-1967.72
-1634.89
-1855.38
-2535.8
-2477.75
-2243.21
-1801.81
-2335.46
-2318.11
-2392.42
-2641.76
-1230.23
-1711.13
-1426.69
-1362.27
-2138.7
-2069.85
-2093.13
-2435.08
-2681.63
-2735.28
-2709.25
-2741.24
-2410.39
-2487.85
-2655.53
-3085.46
-2966.71
-2289.08
-2377.6
-2555.37
-1695.78
-1598.75
-1506.04
-1685.05
-1991.22
-1762.45
-1572.23
-1451.5
-1775.05
-1659.6
-1097.78
-614.32
-385.43
-528.516
-697.402
-689.788
-658.509
-824.025
-774.92
-758.726
-836.857
-729.922
-522.904
-346.1
-268.742
-200.966
-164.293
-48.9287
-37.7055
-34.4222
-59.4821
-129.16
-486.374
-377.515
-622.965
-535.099
-751.486
-603.346
-537.059
-803.972
-619.019
-726.52
-2816.56
-2749.27
-3014.99
-2869.68
-2574.93
-2439.43
-2036.57
-1851.56
-1667.9
-1505.67
-1587.75
-2152.95
-2127.59
-2133.41
-1710.24
-1491.08
-1736.93
-1893.64
-2013.06
-2269.41
-2211.13
-2185.94
-2379
-2652.67
-2106.9
-2218.07
-2277.19
-1724.75
-1952.66
-1473.23
-1412.08
-1389.12
-1174.1
-1408.86
-1013.24
-1266.01
-1299.05
-1256.03
-1299.67
-1319.35
-1613.54
-775.263
-911.011
-589.603
-432.346
-543.102
-503.676
-652.756
-716.449
-792.848
-924.225
-1336.93
-1214.82
-1244.77
-1389.91
-1624
-256.209
-341.177
-537.673
-564.373
-584.201
-613.099
-601.414
-1351.25
-1942.05
-1817.78
-1831.47
-1844.81
-2192.66
-667.463
-638.007
-2291.78
-2297.04
-1875.94
-2016.19
-1771.19
-1501.73
-1382.91
-1615.33
-1528.87
-1591.59
-1827.97
-1955.68
-1784.03
-2105.73
-1821.72
-1802.35
-2084.82
-2068.37
-2028.93
-2248
-1801.4
-1826.46
-1454.26
-1656.06
-1252.44
-1684.27
-1366.48
-1409.39
-1125.76
-1165.04
-1138.8
-1042.14
-921.378
-1025.55
-763.191
-631.576
-502.919
-599.833
-561.922
-793.91
-794.178
-1183.03
-1156.23
-1104.17
-1210.47
-1380.79
-1597.96
-1850.57
-1804.83
-1948.35
-599.411
-570.079
-416.322
-463.121
-536.29
-720.866
-1257.22
-1591.17
-1613.17
-783.963
-1014.58
-1354.1
-1650.33
-1471.72
-1221.93
-1667.44
-1499.82
-1466.05
-1668.76
-1945.75
-1697.81
-1897.14
-1795.43
-1851.54
-1924.74
-1767.01
-1379.06
-1945.21
-1062.01
-1906.31
-1567.34
-1284
-1457.29
-1148.29
-1171.69
-1263.55
-816.551
-1405
-1155.52
-727.834
-720.753
-660.827
-690.347
-867.417
-714.855
-1088.12
-999.061
-1523.83
-1099.99
-1191.67
-1484.78
-1394.93
-1605.4
-1488.92
-1034.75
-1747.62
-1263.58
-1296.9
-1405.17
-1282.73
-1269.23
-1425.49
-1433.28
-1282.88
-1497.73
-1100.32
-1299.91
-1476.08
-1366.26
-1143.04
-1284.73
-1068.56
-1309.11
-1477.42
-1211.66
-1224.64
-1118.84
-1100.32
-1445.49
-1045.87
-1026.25
-1035.94
-1041.07
-916.03
-856.043
-1003.34
-682.252
-734.463
-828.709
-802.445
-720.783
-948.585
-741.03
-893.729
-1090
-621.027
-666.405
-667.968
-786.267
-892.903
-1075.61
-1385.99
-1305.1
-1492.52
-1408.17
-1464.88
-906.527
-1190.7
-1327.47
-1460.65
-1220.76
-1317.45
-1380.19
-1373.68
-1393.78
-1455.38
-1421.47
-1482.38
-1335.43
-1361.85
-1217.17
-1215.43
-1249.05
-920.085
-1451.68
-1116.07
-1051.52
-962.465
-970.495
-847.991
-826.508
-698.128
-734.681
-791.51
-651.162
-800.643
-881.912
-956.819
-769.282
-818.932
-739.464
-686.775
-775.341
-794.376
-789.289
-907.95
-1001.06
-1032.81
-995.173
-1523.23
-806.558
-884.99
-1583.44
-1414.27
-1475.21
-1536.89
-1542.61
-1582.05
-1612.38
-1601.01
-1579.67
-1532.89
-1466.09
-1358.89
-1339.7
-1389.4
-920.903
-1522.24
-1163.12
-1086.41
-974.756
-955.597
-848.986
-831.527
-698.95
-743.602
-813.511
-614.72
-659.31
-881.909
-947.659
-1313.81
-1106.12
-1038.52
-1026.71
-1095.8
-1071.1
-1621.21
-1861.6
-1144.49
-1841.36
-1739.71
-1787.44
-1855.88
-1866.66
-1903.05
-1919.48
-1901.87
-1862.81
-1851.92
-1758.91
-1647.65
-1619.88
-1645.36
-1053.88
-1719.38
-1318.62
-1242.11
-1055.66
-1037.38
-948.602
-945.473
-688.803
-742.776
-908.023
-1166.24
-869.58
-1151.21
-1249.46
-1669.29
-1707.37
-1301.44
-1377.76
-1798.81
-2465.71
-2327.1
-2823.11
-2254.73
-1622.4
-2266
-2204.95
-2263.81
-2335.42
-2348.32
-2386.21
-2395.75
-2381.75
-2329.65
-2325.74
-2224.73
-2102.74
-2054.24
-2045.94
-1378.06
-2054.75
-1656.14
-1558.7
-1324.65
-1290.82
-1153.35
-1230.46
-914.716
-976.884
-999.126
-1567.5
-1277.17
-1608.57
-1746.74
-2232.75
-3014.74
-3161.72
-3581.59
-3229.9
-2291.42
-2880.28
-2862.73
-2927.65
-2990.32
-3005.32
-3046.17
-3050.39
-3036.03
-2979.06
-2989.04
-2887.39
-2764.75
-2707.09
-2662.34
-1966.49
-2579.85
-2223.16
-2090.95
-1801.55
-1783.15
-1544.37
-1735.64
-978.957
-1306.18
-1769.29
-2247.23
-1969.45
-2291.99
-2484.81
-3515.86
-4034.98
-4211.77
-4558.91
-4349.63
-4703.62
-3693.92
-3699.24
-3775.92
-3825.17
-3837.59
-3892.26
-3884.94
-3881.79
-3822.58
-3838.15
-3747.47
-3629.27
-3557.43
-3500.6
-2846.74
-3333.52
-3030.81
-2860.57
-2549.43
-2496.3
-2175.44
-2394.57
-3304.18
-1832.3
-2117.37
-3094.5
-3003.31
-3303.91
-4645.51
-4839.72
-5265.52
-5443.33
-5709.42
-5654.28
-5887.12
-5900.54
-4731.55
-4806.26
-4841.19
-4852.05
-4919.62
-4911.69
-4910.8
-4846.49
-4876.68
-4795.34
-4691.54
-4622.67
-4561.8
-4002.42
-4345.41
-4117.69
-3921.27
-3603.61
-3524.65
-3115.33
-4610.63
-4698.63
-4129.21
-4070.7
-4452.61
-4464.49
-6010.72
-6124.8
-6323.72
-6647.39
-6803.94
-7038.75
-7015.63
-7196.79
-7204.5
-7282.82
-5981.83
-6012.29
-6017.92
-6092.49
-6072.21
-6087.44
-6028.94
-6066.52
-6001.44
-5910.34
-5838.2
-5782.91
-5390.5
-5548.96
-5408.01
-5221.23
-4988.91
-4893.42
-6425.32
-6222.95
-6230.27
-5880.05
-5784.94
-5980.05
-7639.01
-7639.17
-7679.78
-7869.14
-8107.57
-8237.63
-8435.26
-8456.37
-8586.25
-8584.51
-8658.85
-8707.05
-7316.32
-7321.4
-7395.21
-7385.12
-7408.46
-7340.47
-7394.75
-7331.12
-7251.31
-7204.95
-7104.14
-6888.17
-6926.35
-6836.24
-6677.1
-6516.71
-8123.24
-8041.15
-7906.8
-7875.58
-7654.66
-7579.33
-9363.1
-9320.43
-9259.77
-9242.17
-9436.7
-9629.19
-9737.53
-9914.61
-9963.24
-10075.2
-10077.4
-10133.7
-10212.9
-10239.5
-8718.93
-8788.32
-8744.93
-8793.15
-8754.49
-8822.02
-8731.94
-8655.26
-8657.35
-8544.43
-8397.3
-8359.64
-8338.2
-8217.95
-9848.04
-9783.22
-9685.79
-9608.79
-9574.17
-9446.31
-11254.3
-11095.3
-10969.3
-10782.1
-10837.3
-11044.3
-11133.6
-11262.2
-11451
-11588
-11610.5
-11641
-11722.5
-11849.7
-11782.1
-11983.4
-11810.1
-10235.9
-10311.3
-10315.6
-10438.1
-10242.7
-10158.7
-10321.5
-10154.2
-9994.52
-9915.68
-9966.64
-11722.8
-11488.1
-11549.2
-11401.6
-11319.4
-11257.9
-12633
-13077.5
-12803.1
-12539.6
-12126.5
-12561.6
-12756.7
-12468.1
-12717.3
-13052.7
-13305.2
-12905.1
-13110.3
-13428.5
-13623.6
-13044.7
-13522
-13652.8
-13886.1
-13412.7
-11972.8
-12213.5
-11959.3
-11863.7
-12152.1
-11924.7
-11729.9
-11546.2
-13413.3
-13317.3
-12796.8
-13417.1
-13170.2
-12875.9
-13513.1
-14818.6
-14357.6
-14323.6
-14541.4
-13648.9
-14330.8
-13991.9
-14052
-14487.6
-13627.5
-14740.1
-14546.9
-14509
-14957.4
-13719.4
-15056.7
-14800.5
-14767.4
-15097.8
-15254.1
-13892.7
-12856.5
-13529.9
-14841.5
-16571.8
-16578.7
-16716.7
-16781.9
-16789.8
-15060.4
-15002.7
-15183.2
-15506.7
-13984.8
-13742.6
-13947.5
-13814
-13644
-13423.4
-13733
-14841.3
-14826
-15070.9
-14865.4
-14578.3
-14593.7
-14888.9
-16387.9
-16449.2
-16110.1
-16122.9
-16065.1
-15700.8
-15710.8
-15805.7
-15963.1
-16283.1
-16307.4
-16234
-16558.5
-16530.6
-16501.2
-18139.6
-18238
-18349
-18352.7
-18442
-18604
-18569.6
-18624.1
-16980.4
-16985.5
-16792.8
-17017.9
-16710.5
-16717.6
-16579.2
-16610
-16531.9
-16420.3
-16317.1
-17972
-17960.5
-18022.8
-17709.7