/*--------------------------------*- C++ -*----------------------------------*\
  =========                 |
  \\      /  F ield         | OpenFOAM: The Open Source CFD Toolbox
   \\    /   O peration     | Website:  https://openfoam.org
    \\  /    A nd           | Version:  7
     \\/     M anipulation  |
\*---------------------------------------------------------------------------*/
FoamFile
{
    version     2.0;
    format      ascii;
    class       volScalarField;
    location    "19";
    object      p_rgh;
}
// * * * * * * * * * * * * * * * * * * * * * * * * * * * * * * * * * * * * * //

dimensions      [1 -1 -2 0 0 0 0];

internalField   nonuniform List<scalar> 
15142
(
-3.07444
-1.43805
-0.673669
-0.878574
-0.852364
-0.791412
-0.718414
-0.668133
-0.604969
-0.559968
-0.455675
-0.4452
-0.447682
-0.463812
-0.452642
-0.430539
-0.415535
-0.408512
-0.372948
-0.361174
-0.338802
-0.318747
-0.320088
-0.308595
-0.278146
-0.243921
-0.223279
-0.219869
-0.248283
-0.0895247
-0.0775665
-0.0671681
0.00112249
0.185548
-0.543482
-0.829209
-0.70029
0.868004
3.21407
-0.32246
9.12314
19.8599
21.8714
85.1803
229.61
438.722
1006.26
2298.73
2956.67
4404.3
5230.73
4930.66
4939.71
3409.69
2813.17
2252.6
2052.38
1775.51
1677.52
1399.18
1343.4
1615.12
1279.86
1354.78
1029.22
961.898
430.184
192.346
104.522
52.0616
21.4761
31.822
37.333
30.8598
56.6723
147.695
299.905
453.603
903.286
1136.15
2208.27
3223.61
3868.21
4909.32
5854.61
6268.02
7538.89
6911.49
6956.47
6712.93
6243.48
6230.39
6513.09
6801.62
6572.93
6940.56
5409.95
4780.93
3735.75
2653.88
2306.73
1437.51
975.08
692.549
464.068
423.964
154.219
74.3745
77.6086
64.9336
40.6322
60.8693
185.565
417.292
822.36
1361.75
2081.62
1359.17
1117.61
757.427
956.575
982.64
774.673
1028.79
1046.29
846.819
1059.83
1023.69
618.908
575.611
362.997
598.216
782.169
1287.03
1832.07
2797.82
2371.29
2364.96
2756.01
2194.8
2109
1296.68
759.267
515.041
232.979
98.8659
43.1892
18.4633
9.75276
12.3257
12.0301
19.0367
39.7862
94.4488
160.166
103.862
50.3873
20.0954
2.77843
-2.32277
-0.657465
-0.886027
-1.86217
-3.15893
-5.65917
-12.0835
-2.41675
0.125994
14.8929
52.5655
90.1969
20.2098
41.2851
18.5157
7.09741
0.0562636
-1.5496
-2.90851
-4.78691
5.71711
12.7879
38.1793
-2.82256
79.1585
80.1897
351.4
251.929
554.024
499.333
877.808
557.118
859.498
711.512
799.679
527.506
694.559
671.669
682.307
557.201
409.278
345.101
308.994
367.961
347.034
306.021
347.875
267.247
-47.0979
258.701
201.172
95.8673
-51.0238
231.189
219.051
131.807
63.9586
345.524
269.563
457.3
447.941
502.563
321.25
140.908
15.6311
14.4651
-59.9665
8.84166
-1.89492
19.1664
21.3709
15.8159
9.86505
9.31654
-8.70866
-0.608877
68.0134
195.691
254.37
104.341
126.683
168.253
60.8855
88.0825
142.842
59.6156
98.7747
173.222
91.5085
162.01
116.974
204.876
167.464
299.626
246.538
498.524
395.665
211.323
101.855
135.384
66.4245
94.4705
45.8828
68.0101
36.2525
59.1741
36.6827
-10.7777
2.05303
-11.7403
11.3852
10.8527
42.5055
149.868
294.077
554.688
329.638
186.293
45.7405
72.1677
143.226
234.876
75.2626
50.0741
34.8627
7.44939
9.10102
17.6402
18.3456
28.5563
9.1201
8.60119
0.291419
-0.30385
5.52627
-8.31186
-15.5415
-16.5493
-8.36883
-3.67809
-0.528036
6.28855
-2.15102
-8.04262
-0.443801
28.9157
25.5331
81.1475
90.2399
52.1625
43.0908
43.8129
3.99807
-3.21721
-3.56549
-7.50788
-6.17386
-7.62651
-6.57449
-8.82364
-4.40626
-5.36348
-7.18206
-4.7375
-2.15644
-2.12328
-2.21493
-4.25511
-5.61987
-5.30092
-4.473
-3.60857
-3.16634
-2.18474
-1.91575
-1.77811
-1.60479
-1.38209
-1.36618
-1.39675
-1.43419
-1.44785
-1.36677
-1.2613
-1.15946
-1.08642
-1.07223
-0.994828
-0.925483
-0.882668
-0.82795
-0.81193
-0.819613
-0.815554
-0.811222
-0.819915
-0.928592
-0.933227
-0.897974
-0.845275
-0.745128
-0.722697
-1.03401
-1.81874
-1.97978
-2.91461
-4.821
-4.03526
-4.96515
-3.80948
1.28471
-2.23869
50.398
212.412
438.913
1391.66
2861.86
4780.4
7730.11
9927.49
10308.5
8685.99
5981.71
4212.58
4018.38
3848.56
3381.78
3052.04
2849.49
3473.36
3987.89
3318.31
3314.42
2927.9
1975.49
922.058
347.364
102.93
86.4036
31.3846
33.1493
42.0884
32.9862
91.2543
250.04
425.753
619.857
2035.23
2561.83
3784.53
6509.37
8086.74
11459.7
11339.7
12047.1
14368.2
13124
13542.8
14010
13736.8
13638.4
13846.2
13239.8
12783.1
13673.7
10515.2
9926.74
8603.75
5744.66
4771.24
3109.36
1747.48
1270.68
1011.6
881.243
378.543
189.159
99.99
101.012
99.7761
163.217
549.209
731.222
2045.83
3267.78
3419.99
2783.02
2669.08
1945.84
2163.63
2033.75
1878.22
2083.81
1906.78
1919.01
2681.4
2470.48
2095.97
2226.05
2188.98
2515.81
3039.38
3427.66
4332.53
5663.07
4710.94
5286.96
5956.4
4767.06
4561.02
3194.25
1249.91
752.331
308.871
99.3908
38.4568
9.05551
3.56677
10.1718
8.11384
3.16735
27.3143
53.6648
144.255
62.5972
5.93757
-1.28215
-8.53952
-5.12711
-2.72627
-2.99532
-2.16669
-2.2921
-3.18924
-3.25537
-4.51785
-6.01468
-10.2857
-7.42467
-9.41946
-7.28242
-7.29522
-5.29717
-4.08012
-3.23019
-2.49854
-1.99731
-1.93204
-2.25139
-2.30009
-2.32764
-2.29928
-1.99088
-1.8449
-1.70986
-1.66735
-1.59617
-1.46288
-1.43534
-1.34644
-1.23717
-1.24918
-1.22477
-1.17984
-1.19507
-1.35148
-1.37349
-1.45922
-1.00503
-1.48247
-1.4449
-1.54206
-1.66594
-1.06195
-2.126
-2.14109
-2.75989
-3.72071
-5.71297
-3.82984
-4.17593
-5.11101
-0.14272
-13.5342
36.3814
181.586
371.747
1563.27
3074.77
5623.87
10269
14167.8
15700.8
11883
7949.34
5780.57
5581.37
5746.17
5248.35
5480.57
5068.03
4607.54
5953.36
6205.41
5642.17
5133.86
4422.35
2889.67
1426.12
441.513
105.188
89.7181
84.1952
50.532
46.475
43.1469
46.9787
29.5939
10.5347
8.36434
6.81837
6.97365
2.3119
0.992852
9.42134
4.84474
1.16294
-3.06012
-1.37067
-5.26618
-12.8965
-24.3453
-24.6515
-23.5951
-26.7148
-31.2847
-22.3735
-19.7321
-24.6539
-27.4677
-24.7303
-12.9935
-37.356
-13.2925
8.01835
-35.287
-24.7193
-22.6369
-30.6607
-23.6689
-28.0335
20.6419
26.0399
46.9926
90.2188
203.603
411.119
744.514
607.824
20.7943
-86.1982
-246.206
-242.851
-340.412
-327.365
-447.844
-475.786
-577.137
-601.852
-580.157
-569.093
64.1575
84.375
249.627
283.348
-31.8357
46.4223
10.8001
-5.41584
-5.17398
-3.98231
60.3049
235.144
-27.1526
-12.4039
-21.0072
-16.0017
-11.8708
-8.98101
-7.4015
-6.28406
-4.71138
-3.93306
-3.39485
-2.87505
-3.16591
-2.80897
-2.89322
-2.42597
-2.66835
-2.18917
-2.17902
-2.36024
-1.8985
-1.93994
-2.06336
-1.62894
-1.63868
-1.8085
-1.47833
-1.52154
-1.60827
-1.6455
-1.74193
-1.80337
-1.58573
-1.92137
-2.06107
-2.01129
-2.50061
-2.96007
-4.21793
-5.84726
-5.80966
-8.21835
-12.9987
-4.42658
-10.8548
12.1649
9.20721
190.129
1587.13
1929.13
7206.15
7484.35
13055.3
9101.69
10198.9
5802.95
5786.3
4628.21
3342.71
4682.22
3054.84
3119.24
5374.65
4291.18
3218.51
4519.02
2853.07
1146.36
268.86
45.2787
8.10854
26.8565
25.9214
18.2013
26.4664
109.209
126.051
368.592
710.027
1471.22
1412.39
3475.6
5186.84
8050.07
6930.17
10653.1
13254.2
16844.5
16195.7
17665.3
19814.2
18427.7
19214.8
21619.5
22575.5
22329.8
21503.6
18722.3
18226
19067.1
15778.8
14544.9
13297.7
9757.65
7316.71
4946.09
2740.42
1900.46
1524.18
1449.02
761.01
328.854
202.702
227.253
111.615
40.4775
17.0677
48.1195
33.8168
20.9166
35.8947
56.7879
26.45
47.6228
135.432
91.0464
33.001
40.0694
51.2688
249.614
1063.14
2158.94
2082.39
1409.78
1186.32
1026.36
1139.52
877.817
916.333
748.511
905.612
982.561
972.239
1156.91
1147.61
1345.91
1686.91
1934.43
2496.07
2502.53
2648.58
3117.1
3178.02
3164.38
1443.64
365.551
87.5868
43.0008
-1.51502
-16.2559
-9.54822
-10.4845
-20.5041
-12.877
48.8954
-7.72314
-18.4782
-15.5185
-10.1672
-12.3878
-14.1011
-10.3678
-8.13768
-8.03079
-8.84277
-9.64074
-10.4333
-8.58174
-7.08486
-5.97354
-4.87829
-3.98462
-4.74516
-4.56621
-3.68186
-4.38915
-4.19465
-3.40074
-3.99784
-3.75871
-2.88827
-3.15367
-3.72298
-3.46233
-2.66021
-3.09477
-2.84624
-3.03512
-2.23949
-2.46555
-2.93865
-2.71029
-1.9836
-2.04507
-2.11604
-2.27165
-2.39055
-2.47075
-2.76208
-3.02432
-3.43348
-4.12664
-5.40076
-5.94607
-5.8158
-6.87816
-8.36356
-12.2116
-13.4402
-20.0459
-21.3197
-27.5692
8.48996
363.01
376.904
1066.92
2569.08
2839.89
3929.06
6050.43
4238.88
3862.15
4877.89
2871.17
2710.33
3495.64
2541.93
1772.45
2040.79
2718.57
2148.95
2733.38
1913.76
2748.4
2087.55
1200.73
1224.35
1773.13
610.755
157.34
27.2969
2.20484
9.30398
20.2842
79.0734
273.29
377.119
909.541
2241.55
1596.01
754.013
676.094
807.513
1579.11
1607.99
3351.58
3370.43
8755.56
6839.76
8702.38
13626.4
10793.9
7758.05
5360.66
6055.56
5570.04
5991.92
7998.38
11019.7
15370.9
19184.6
15557.6
20599.8
15105.9
10428.9
7401.46
7663.39
7654.74
7450.3
10645.4
14643.8
18973.8
11853.9
9960.77
11135.1
8394.04
7551.2
7936.87
5849.62
3663.85
3545.41
3704.68
2117.23
1275.08
770.243
465.098
151.216
33.1334
-21.1615
-17.2966
-13.4979
-13.8925
-1.08677
-29.202
-1.91647
8.50669
49.8995
53.1996
117.302
291.087
577.133
948.501
650.071
-2.81215
-28.2406
-221.204
-304.258
-83.8073
254.585
118.859
396.661
214.931
-6.11495
385.442
434.244
994.432
1320.55
1232.71
1247.48
1345.97
906.686
427.596
41.1983
272.228
25.7065
-9.84558
-18.7197
535.627
1092.29
794.452
233.634
-20.3528
-22.2475
-17.6428
-15.0995
-12.8407
-10.4985
-8.56407
-6.8347
-5.73894
-6.42228
-5.31248
-5.83783
-4.83868
-5.1813
-4.12112
-4.6062
-5.14925
-5.84111
-4.51814
-4.81406
-3.8004
-4.08007
-4.35712
-3.33896
-3.86625
-4.2645
-4.82348
-3.65813
-3.83219
-2.86654
-2.99519
-3.19372
-3.35278
-3.52061
-3.74549
-4.14861
-4.5792
-5.55416
-6.19141
-8.61737
-10.0019
-8.77975
-11.123
-10.857
-9.7038
-13.5473
-13.3628
-18.7347
28.4718
-83.8879
52.8335
140.91
576.313
116.866
61.7127
1133.33
539.708
1554.94
357.644
1313.47
565.045
1707.59
577.68
249.307
143.78
824.659
428.246
1248.18
624.604
272.077
1183.2
406.919
296.809
268.913
381.576
277.146
434.405
142.268
31.7499
-9.70536
4.95255
21.9133
77.9905
263.9
224.078
73.5122
31.478
8.80795
9.94096
64.1637
167.871
366.904
582.422
1185.91
603.028
122.3
110.272
11.3794
6.256
48.6343
115.277
274.143
458.4
495.891
334.027
203.892
278.686
378.655
686.947
1035.01
770.456
1021.38
1717.32
992.779
986.546
628.735
405.997
687.252
475.555
233.499
148.35
126.387
83.3658
51.6203
41.2866
19.1117
16.7109
-3.00714
-26.4418
-59.7886
6.85399
-22.906
-23.1476
-27.6736
-23.0874
-23.4482
-22.4709
-49.8794
-4.23253
-16.6183
-21.5214
-31.4935
-62.7106
-44.7322
14.6671
-160.481
167.871
828.692
2556.14
6168.83
6377.34
6072.03
5390.94
3703.95
4360.36
5731.99
3921.47
4314.75
2415.12
950.165
371.209
115.031
51.532
-63.1113
-59.2329
-45.2824
-44.6796
-36.6245
-34.0504
-30.2755
-25.3337
-21.9409
-18.7108
-15.2933
-12.4884
-10.1393
-7.92078
-6.02107
-6.56694
-7.5962
-6.99474
-5.1859
-5.43662
-4.08091
-4.26713
-4.45098
-4.66269
-4.85616
-5.31859
-7.009
-7.59001
-9.98551
-12.0974
-11.7451
-14.3272
-10.7983
-24.6261
-6.08911
34.8023
-36.8147
148.507
-18.81
918.757
459.468
1078.17
19.7127
75.174
-170.067
61.6328
200.417
569.467
116.996
460.8
134.147
479.53
820.224
1096.99
921.828
462.606
123.888
56.9074
-16.4997
4.11291
82.5239
201.805
493.543
28.58
734.97
529.585
977.052
1060.61
1927.33
3300.04
5685.55
3463.94
2217.67
1266.54
966.024
207.301
884.361
840.086
1363.24
1888.74
3405.85
3211.71
1959.23
3321.7
3171.69
4563.18
7979.19
4975.8
3169.74
2696.11
1669.03
1005.15
306.04
650.226
308.385
455.151
1070.91
1541.34
2598.79
4474.98
5035.79
4300.59
6956.79
9430.28
9579.05
7655.02
6505.24
3947.16
2198.2
1242.24
753.924
477.446
193.946
162.472
44.3451
-3.94774
-48.8388
0.928216
-19.4753
-14.9603
-17.2145
3.38508
-23.3237
-0.742772
-8.77913
-44.7658
-168.944
-313.712
-782.872
-249.024
-363.486
272.94
446.128
1181.63
1765.33
2219.34
1163.74
1325.5
225.549
14.3586
-109.331
817.963
2277.13
2037.84
1187.91
-22.6555
-32.9429
-27.2239
-24.818
-23.0368
-20.9677
-18.279
-15.8007
-13.734
-10.9687
-8.76599
-6.82474
-7.76223
-9.10497
-8.60532
-6.51316
-7.30027
-5.50568
-4.78808
-5.31881
-5.8537
-6.54224
-7.94652
-9.20084
-9.5635
-7.43366
-7.647
-5.71994
-5.94115
-6.14858
-6.53724
-8.60657
-9.47398
-11.5528
-11.8002
-14.3575
-16.5041
-14.6658
-17.8507
-27.5392
3.97518
-41.734
22.3328
140.532
108.696
756.004
280.463
1914.25
1138.15
614.769
582.255
365.063
472.558
996.196
1000.45
1026.76
1131.64
735.585
757.958
1111.53
1049.5
1075.98
983.911
782.219
299.61
-86.8371
599.271
116.296
94.5192
42.538
31.0323
24.2347
135.277
274.188
338.822
591.181
480.383
241.506
370.37
924.108
220.453
1066.18
1023
1193.63
816.36
904.334
1082.23
913.018
704.214
554.891
720.608
1077.21
827.192
411.607
352.457
723.197
58.5773
30.5112
-340.757
-545.243
290.197
-6.20987
63.3859
1375.86
879.172
1293.5
-16.4976
229.358
232.79
945.65
1569.64
2610.54
4419.8
7505.19
7404.28
10249.2
15061.9
19951.3
10744.1
8125.18
7617.55
7336.93
5421.8
3364.48
3394.69
3549.64
1980.72
1099.86
629.654
364.444
104.408
-9.50396
-6.32037
-12.0941
-0.0610286
-1.78786
-11.7706
5.95267
94.5428
186.946
454.91
888.009
1110.9
870.935
149.189
198.318
-200.015
-355.985
-102.413
120.305
45.4443
-163.436
677.571
982.101
916.24
589.686
299.839
127.38
-254.376
-310.114
-689.823
-627.637
-808.534
-842.309
-568.513
-727.843
-506.141
81.431
59.1754
91.5316
-121.06
160.856
1368.32
71.4306
105.748
-8.44114
-27.2059
-23.2669
-21.5823
-18.6161
-16.5166
-14.6814
-12.0066
-9.80582
-7.68123
-6.63969
-7.53201
-5.81245
-2.26869
-1.22696
-1.07062
-0.929945
-0.850426
-0.802595
-0.829149
-0.855611
-0.93275
-1.17935
-1.13439
-1.26326
-2.15759
-2.60769
-2.50971
-2.1366
-2.60892
-3.02747
-3.07059
-3.69062
-3.78388
-4.41294
-5.10063
-6.52297
-5.88006
-5.03907
-5.39481
-6.17491
-7.28495
-8.30912
-10.1121
-12.1666
-12.4245
-14.8327
-16.8005
-19.5533
-21.7942
-23.286
-29.1713
-29.9996
231.704
3009.99
457.295
-61.7312
156.397
131.75
148.63
-111.286
-152.092
-803.157
-351.828
797.958
-72.9882
1006.71
412.238
1013.11
1069.02
1138.02
1412.29
1140.8
658.253
452.319
490.032
1249.83
-45.998
-594.137
-877.498
-780.478
-576.858
-590.965
447.046
1521.62
1151.22
2193.46
2020.92
2268.75
2149.97
1902.06
2171.75
2656.84
1306.11
495.465
522.358
2816.11
2018.53
2418.84
1432.08
52.5883
-35.4906
-30.0412
-28.661
-26.7612
-24.9444
-22.7708
-20.4468
-17.5209
-14.8088
-12.2225
-9.86377
-10.3247
-10.6181
-11.6415
-13.1596
-11.1305
-11.8878
-9.42334
-8.50567
-8.66181
-9.40711
-10.6609
-8.58754
-11.1955
-11.9428
-12.1563
-9.9375
-10.1413
-8.0238
-8.22391
-10.3087
-10.7787
-12.7821
-14.1314
-15.8308
-16.829
-16.7075
-17.2451
-27.1094
-16.9046
-16.8416
-11.2923
32.018
174.578
563.71
1183.65
1880.98
559.54
437.157
842.981
792.792
913.479
-102.473
-664.74
-551.034
220.008
-321.141
-187.47
-413.032
-346.327
-299.405
88.589
178.264
43.7497
37.0616
99.8754
245.712
455.696
635.607
1544.67
526.555
-489.151
-663.074
-300.791
-790.031
-298.567
-1126.49
-1342.53
-131.861
-277.452
-752.418
-324.033
-318.931
-195.768
-215.672
20.9781
-47.5091
170.865
442.264
381.472
194.208
12.4737
27.7524
310.307
512.583
737.023
1264.2
768.391
224.972
390.67
927.797
901.222
322.744
289.635
879.201
1356.82
94.4675
811.537
519.397
1109.63
838.541
196.883
344.473
270.077
-457.872
419.166
-43.1224
-727.676
-781.177
-183.236
246.445
1232.54
783.784
1422.63
982.539
495.531
379.6
1311.14
947.308
1349.89
508.566
687.836
415.33
-477.102
-497.907
-96.8711
2.88419
1541.05
863.354
1261.55
-486.167
-1066.93
-1183.37
-462.175
-481.083
-1135.03
-317.201
-316.155
-288.9
-13.9694
49.0805
339.404
296.988
1162.61
1788.85
3003.65
4345.4
7375.22
4998.56
4175.9
6584.01
10158.5
14479.2
18774.9
8857.27
8876.4
5730.89
6713.46
4613.53
2834.19
1497.64
816.195
361.77
152.223
62.5092
19.6572
-4.64603
-2.4205
-3.03413
-4.86967
3.93144
-4.28274
2.337
42.3707
34.3648
62.1699
80.5146
-87.7977
26.5627
772.984
1363.12
1000.03
800.52
1094.28
1381.81
878.441
104.544
-595.017
-882.088
53.591
322.656
808.538
407.176
2343.88
3022.63
2561.88
2834.17
2747.44
2182.16
1089
-558.359
-38.941
-449.42
-111.935
321.018
-85.6854
771.018
2251.12
3175.21
2185.04
424.595
-18.61
-12.077
-30.3225
-29.5889
-29.8135
-26.8471
-24.8515
-21.9869
-18.688
-16.0405
-17.9999
-17.2689
-14.6416
-16.2235
-16.2213
-17.4474
-19.9853
-16.4262
-13.3878
-14.1405
-15.6685
-14.7758
-14.9459
-15.1045
-12.5517
-12.5742
-14.9696
-14.7464
-16.5723
-19.2183
-25.42
-21.151
-15.3086
-3.88171
12.9529
-92.0639
-22.6069
385.188
-330.435
500.626
982.879
348.208
234.376
-1331.07
-1182.17
-399.701
241.225
481.129
61.7792
477.528
944.384
318.557
743.539
1385.83
1828.52
1684.9
1782.11
2090.79
1834.65
1567.7
2058.19
1731.66
1909.68
1540.31
516.258
385.275
70.0586
1196.75
24.3632
137.284
14.3875
4.97215
116.257
607.65
892.002
696.723
2472.26
1631.98
1084.04
1793.45
1257.46
835.012
1002.35
1152.55
1117.85
1719.66
1019.42
1353.22
840.65
-371.972
303.302
293.443
555.996
1301.77
1568.47
1049.61
975.862
786.282
206.174
445.918
556.488
160.808
144.399
156.569
273.702
80.6746
5.91413
-5.41361
-19.1908
-23.6896
-46.7124
-1.59725
-35.4001
-60.6891
6.21429
98.032
248.569
1382.41
3566.05
2588.5
2375.63
2565.08
4531.89
5075.27
4677.93
4600.37
3912.86
3700.7
3105.8
2180.57
1269.56
454.767
379.619
1592.11
1217.88
958.13
2883.53
3429.38
177.27
93.3602
313.229
44.2868
289.218
86.9927
521.549
416.269
1190.31
545.926
445.249
1998.79
2658.05
1373.24
2426.63
-186.908
-133.453
39.4799
-914.041
-597.237
-824.236
1662.58
888.441
1867
586.123
183.385
81.6177
366.289
723.783
1027.62
1346.83
822.924
-840.747
-1131.33
-214.384
-151.742
-79.2878
258.349
156.691
-13.7172
343.899
636.538
1373.56
1890.17
2883.64
3932.14
3400.82
5643.13
9317.38
12729.2
7288.15
4506.96
3099.13
1835.71
878.981
478.359
940.799
2013.8
2850.98
5980.16
2124.32
1808.36
2922.01
5785.99
4483.97
4557.33
3124.31
2218.5
806.539
1737.7
3357.58
6529.2
4865.23
1327.19
517.684
256.605
96.4965
28.083
5.14088
-2.27121
-3.60892
0.160271
-2.20648
-4.78251
-2.68505
9.09132
77.6121
78.7653
103.886
160.004
255.568
118.318
218.299
88.362
-135.702
31.1151
959.771
587.849
68.1303
-424.998
351.657
32.7473
81.6765
-118.105
1423.86
2369.81
1035.86
2691.63
2827.44
2734.05
2566.33
1796.28
-26.576
1518.04
1579.83
619.065
204.778
2175.73
2592.35
2809.22
2132.44
232.253
86.0607
1982.81
3892.69
4350.4
2866.16
713.643
117.811
42.819
-36.7561
-37.4697
-33.5805
-33.0655
-31.3027
-26.7824
-23.9197
-21.2086
-18.5599
-19.612
-20.8778
-23.6503
-25.3552
-24.1951
-20.4422
-17.0869
-18.2523
-18.7918
-20.8906
-18.0527
-17.9395
-18.0367
-17.7423
-20.7089
-18.3509
-19.5832
-22.1585
-8.05867
-65.9025
32.8017
147.672
617.058
1197.36
2266.36
2931.71
1318.99
1002.72
-60.9561
-724.008
227.644
-734.965
-766.958
379.348
-634.709
-839.061
267.975
-251.24
-135.996
439.477
413.628
717.908
684.301
225.599
669.348
1512.61
1698.22
2215.91
2127.65
1125.02
1254.78
1979.93
2179.58
1588.26
2056.53
1504.98
1556.64
1754.44
2102.43
3173.91
1502.09
1143.91
1311.61
1564.48
1837.93
2641.05
3160.2
2658.73
1774.08
1690.47
3661.55
2109.59
623.761
-465.353
1097.33
1171.29
3646.08
3406.13
615.025
232.601
1784.02
4357.38
1625.24
743.072
2467.46
3436.06
1593.68
1519.36
2149.51
1274.65
1647.73
1819.45
2430.65
1696.11
3080.38
1598.97
1589.67
3947.42
1709.25
4480.31
5082.56
4567.01
4513.58
4400.01
4887.24
4109.62
3571.39
4338.19
2046.27
2545.71
3513.81
3943.81
3678.6
4831.18
1787.8
3203.94
2064.25
1097.11
314.81
1542.24
3609.19
5836.57
4822.33
5461.18
4711.89
4727.92
3396.64
4462.51
6098.95
5342.77
6265.44
6925.41
6076.33
5334.41
4388.72
3506.34
4328.32
3242.11
1860.58
391.192
1497.42
3427.66
7479.49
8272.71
9016.12
8635.7
8497.69
8116.32
6616.48
6676.8
6822.47
5810.71
6836.41
4938.73
8406.54
5142.97
7813.9
11717.2
10746.7
11079.3
11038.3
10067.8
8472.25
7960.19
8022.53
6727.26
5724.47
6633.42
7790.39
10338.7
7330.73
11217.9
10948.1
11066.8
9965.59
8222.55
8356.68
8528.84
8122.88
6649.91
5745.83
6656.56
7766.23
10350.9
7714.75
11724.7
10600.1
11013.5
10778.5
10372.8
8711.26
7741.87
6718.75
6916.42
7802.5
7149.05
7589.25
6747.37
6336.87
5727.83
5417.14
6248
5241.68
4096.04
4681.42
5783.35
7108.18
7059
6609.09
3551.24
2193.53
1349.26
497.005
99.7126
-4.2344
-70.7474
-75.0543
-64.592
-59.025
-48.7457
-44.29
-36.4885
-32.0665
-27.1308
-27.955
-29.1956
-33.5441
-29.5316
-29.4119
-24.7276
-24.5836
-21.0025
-20.9372
-24.3368
-24.3873
-27.681
-26.5175
-24.3239
-1.1586
-87.2529
920.732
1187.65
2718.7
3426.41
4368.59
4661.38
4477.41
4946.04
4887.09
3995.33
3808.18
5198.92
4435.88
4410.44
3609.79
3238.46
7411.89
8517.06
7631.03
9453.47
9497.52
9896.54
10560.6
11154.7
11109.5
10474.9
9572.45
6197.68
10311
11103.4
10352.6
11476.5
12512.2
12588.9
12783.4
12404.6
12443.9
12320.9
12368.1
12592.6
12435.7
12198.9
10867.7
10502.5
9434.03
6412.22
8203.95
9326.62
10573.8
11264.1
9767.26
9067.61
8091.76
9000.76
7838.3
6193.99
4890.25
3096.86
1257.24
1343.77
556.815
133.169
88.2284
-22.266
-84.0286
-85.3494
-79.807
-68.8246
-61.9071
-52.0855
-45.9698
-38.5765
-35.4731
-33.684
-32.9612
-29.2328
-28.2253
-31.1176
-28.6642
-15.0236
30.5533
78.3318
333.495
127.756
743.843
1980.52
1912.65
2598.25
4729.83
4441.01
5071.71
6222.15
7640.63
7758.74
6342.16
6417.68
6835.18
4092.56
4868.89
3029.22
8021.61
7440.37
9168.08
10004.4
11559.7
14380.4
13301.7
14317.6
15131.6
15060.9
14810
14146.9
13723.1
11400.2
14696.8
16691.8
16779.5
16507.7
16656.1
16940.6
16928.3
15963.6
14590.3
14426.6
14844.8
14982.2
14095.2
13802.5
11135.1
14566.9
14948.6
14039.7
12717.9
13600.2
13408.7
8868.57
11301.3
11932.9
10536.1
12839.2
12400.4
9880.42
9571.73
11385.6
11294.8
8504.95
6070.97
3795.27
1367.58
1338.2
-188.328
42.3866
85.4429
-243.437
-161.69
-156.237
-128.624
-96.5047
-87.5172
-71.3953
-58.5283
-52.0925
-44.9451
-39.8574
-38.6337
-35.3441
-36.0009
-21.7704
59.4273
270.959
532.882
1244.86
2188.14
3714.45
4080.82
4414.53
6319.5
8058.46
9154.29
8693.04
9345.79
9182.7
8856.14
7715.6
9264.8
9640.5
9338.2
11569
12510.2
14612.6
15660.4
16119.5
15635.5
16340.5
17942.8
18295.2
18077.6
18330.7
18389.3
18363.5
18291.5
18101.6
16459
16583
16108.9
15066.2
15462.8
14617.1
11277.1
14305.5
14136.3
12205.2
13622.8
13782.3
11738.1
11445.9
12705.7
11808.1
7409.74
6750.96
3272.06
1130.69
79.4931
-39.7795
23.5911
572.295
1851.15
1287.9
728.24
699.133
234.999
98.3232
185.567
-58.3145
-66.8259
-70.4565
-65.5331
-53.2749
-44.0629
-37.7101
-38.2973
20.6066
30.1219
274.965
641.18
1314.18
2294.09
3141.76
4523.76
6162.83
7760.87
9361.14
10580.4
10625.2
11255.2
10393.6
9371.47
9747.77
10353.8
12783.5
10938
13262.9
16994
17474.5
17640.2
17557
19778.4
20038.1
20450.2
20155.6
19393.2
18716.2
16112
19235.4
21030.3
21469.8
21707
21585.5
21636.8
20140.8
20135.7
20149.7
20144.5
20277.3
20290.2
19442.1
18069.8
17730.8
17030.8
16998
16340.3
14975.5
14994.9
15021.7
16014.4
15442.2
15113
13604
13064.9
13717.2
13138.4
10727.3
8387.35
1945.82
700.133
2315.33
4209.17
3091.49
7214.98
5033.15
4113.92
3785.63
2855.03
1810.82
1064.05
611.847
182.77
-0.461016
25.027
-26.7137
-7.61263
129.395
797.774
2382.54
2077.38
4023.18
1979.46
3909.38
7087.23
2766.05
4697.86
8392.15
10523.5
13922.5
12674.1
12150.6
11476.3
14162.9
15585.5
15370.2
16491.6
18765.7
19484.9
19659.7
19136.2
20020.3
20995.6
21387.6
22667.8
22816.6
22937.5
23021.8
23003.6
23084.4
23111.2
21720.7
21471.6
21662
21514.1
21251.1
21126.6
20852.2
19960.5
18925.6
19055.5
19509.3
19710.5
18118.4
18257.7
17920.5
17341.5
16992
16196.2
15069.7
13659.5
13217.7
8926.51
2967.98
1816.64
3421.73
4391.29
7634.5
11628.6
9478.96
14327.3
12187.7
10092.6
8825.47
6746.84
4314.14
1278.45
1966.42
3382.55
5114.64
7363.08
11215.8
18801
18971.1
17272.1
15758.3
13989
11426.8
6246.12
9651.49
15094.6
14383.6
15740.1
16668.4
17606.2
19571.1
21197.3
20469.9
20693.1
20893.5
22501.9
22363.4
23355
23364
24595.2
24568.5
24384.3
24395.7
24446.1
24251.2
24623.7
24564.4
24342.1
23957.3
22710.1
21617.4
22362.1
22766.4
22718.5
21370.7
20099.8
20832.8
17038.4
11880.7
11103.5
9999.46
3573.52
2318.19
4435.85
10200.6
14542.2
18535.3
16748.7
19914
21194.4
20309.1
20171.5
18346.4
18065.1
16329.9
12151.4
15006.1
7174.84
10420.7
12852.8
15035.3
22777.9
22595.2
21276.5
16857.6
18408.6
22526.8
21898.3
22329.7
24134.2
24315.8
24460.7
25646.2
25972.2
25763
25916.4
25708.2
25826.9
25786.8
25826.7
25856
25565.7
25100
24342.2
22883
23774
24305.2
24109.9
21805.8
20383.5
22079.3
17656.4
12921.2
3947.12
4359.05
3800.67
2847.39
6918.98
12968.9
16643.3
19900.4
21515.5
20874.2
22568.8
24384.6
24026.5
23785.4
23374.1
24952.7
25658.9
25606.4
27606
27365.6
27590
27769.6
27997.6
27773.3
26998.9
25935.5
24542.4
27460.7
27938.2
27784.1
27082.2
26122.3
25361.3
27568.2
27772.5
27515.1
27340.4
27406.8
27494.8
23264.5
24178.1
27535.7
26591.8
24258.8
23117.9
24583.4
24738.6
16035.7
7575.09
1990.01
3684.74
9322.07
13667.4
11766.3
10322.3
17005.5
17367.9
10726.5
16673.9
7522.64
10722.3
13172.9
23762.7
25730.9
25443.8
25057.7
26347.3
26147
26469.4
26495.8
27806.2
28888.8
29100.7
28809.9
28928.9
29001.7
29048.8
28965.8
29033.3
28953.3
29063.9
28953.3
28842.4
28988.1
28857.7
26602.5
26541.9
28630.6
28465.5
26555
25712.7
27343.3
27276.8
10802.2
3597.97
13515.2
17995.1
23791.1
20519.4
17439.1
3366.4
5108.48
7889.32
12019.8
26682.6
29906.6
28128.9
26011.5
27782.2
28042
29295.5
27851
28529.1
30286.4
29998.3
30178
30009.7
30037.6
30069.1
30059.2
30027.2
30054.1
30060
30094.6
30116.3
30086.7
30198.1
30101.4
29227.5
28847
30036.3
29996.2
28577.8
28056.7
29342.6
29149.9
14502.2
6066.93
16537.9
21498.2
24709
29209
31364.9
31476.3
30433.9
29218.8
27136.7
29029.8
30487.7
29508.5
30707.4
31475.6
30971.4
31081.9
30980.4
30952.6
30961.9
30940.6
30920.7
30949.5
30981.5
30988.5
31058.5
31099.6
31177.6
31136.3
30992.9
30429
31304
31302.7
30445
30146.2
31014.8
30883.4
17066
8736.66
19782.3
23317.2
27898.8
31304.1
32536.3
32354.3
32327.9
31504.4
30588.1
31819.9
32619.4
32927.9
32394.2
31680.4
32355.5
31771.6
31836.1
31754.7
31696.4
31695.2
31664.9
31654.3
31675.7
31723.2
31727.2
31816.4
31907.8
31978.9
31984.3
32369.6
31708.4
32302.3
32354.5
32048.1
31885.8
32403.5
32231.8
20072.1
12060.4
16467.8
26854.5
30765.2
32887.5
33406.7
33012.4
33450.7
33311.1
32883.8
33241.6
32947.7
32374.7
32393.9
32319
32259.4
32252.7
32216.7
32211.3
32232.4
32286.1
32278.4
32373
32480.4
32548.5
32594
33202.3
32584.7
33009.9
33120.1
33175.8
33126.8
33512.7
33179.3
23602
27850.9
21825
30178.5
32994.6
33902
33955
34164.5
33653.1
33476.7
33127.6
33338.4
32981.7
32777.4
32773
32692.3
32642.4
32636.8
32586
32592.6
32602.9
32658.6
32646.7
32732
32841
32918
32975.1
33617.8
33123.5
33437
33597.4
33841.7
33867.7
34238.7
33880.1
34300.4
31753.5
27483.8
32771
34227.8
34308.3
34238.1
34062.3
33638.6
33459.3
33189.8
33249.3
33010.8
33005.7
32957.4
32880.8
32845
32839.6
32775.6
32783.2
32792.3
32853.2
32826.9
32904
32998.9
33071
33131.6
33691
33341.6
33570.6
33761.8
34064.9
34142.8
34560.4
34287
34194.1
34755.6
33870
34278.3
34399.2
34101.2
33975.7
33789.2
33459
33299.6
33070.7
33103.8
32918.6
32916.1
32836.9
32921.9
32891.5
32890.5
32819.4
32839.9
32834.4
32889.3
32855.5
32917.1
32998.5
33072.8
33127.7
33522
33356.5
33496.9
33679.4
33907.9
34005.4
33687.7
33885.7
33882.9
34233.8
34328.8
34136.6
33687.3
33686.1
33633.9
33436
33186.5
33073.3
32893.5
32874.8
32742.1
32747
32673
32625.5
32802.9
32801.7
32731.5
32743.3
32730.5
32794.8
32743.9
32804.9
32874.1
32921.2
33021.9
33240.8
33193.9
33282.9
33436.5
33596.2
33199.3
33282.3
33412.9
33436.8
33671.2
33747
33156.5
33202.8
33269.3
33285.5
33060.6
32863.1
32787.2
32622.2
32576.9
32457.8
32458.1
32407.9
32328.7
32298.9
32614.7
32549.4
32597.3
32559.8
32594.5
32529.5
32618.4
32683.7
32679.9
32793.3
32945.6
32972.6
32991.3
33105.2
32679.3
32746.7
32847.1
32919.1
32952.8
33087.9
32493.6
32641.6
32744.6
32930.5
32904.1
32669.7
32567.2
32452.6
32295.2
32163.3
32109.9
32079.6
32030.6
31903.3
31941.2
31749.3
31957.1
32317.7
32252.7
32241.1
32119.4
32319.4
32391.1
32220.6
32389.3
32559.8
32626.3
32566.8
31998.6
32222.1
32191
32342.3
32394.2
32460.3
32199
31911.9
32186.3
32284.3
32685.3
32414.9
32219.2
32348.1
32110.8
31936
31689.4
31930.3
31716.6
31565.5
31370.1
31786.1
31324.1
31360.8
31140.7
31452.6
31775
31531.5
31816.3
31898.9
31576.3
31807.8
32038.3
32208.2
31587.9
31515.9
32020.6
31562.8
31813.9
31942
32063.4
31549.4
31883.7
31916.4
31804.2
31903.6
31999.4
32223.3
32180.2
31891.7
31945.7
31620.4
31694.2
31738.8
31418.5
31863.9
31332.4
31449.4
31481.9
31303.3
31131.2
31697.8
32030.8
31454.6
31411.9
30940
30964.1
30857.2
30784.6
30768.7
31210.6
31281.1
31227.2
30913.9
31630.5
31111.5
31071
31191.9
31193.1
31425.8
31282.7
31434.2
31433
31297.1
31522.5
31657.3
31643.9
31488
31165
31096.7
31413.2
31396.6
31465.8
31792
31790.9
31713.2
31584
31251.9
31215.8
31295.3
30996.5
31031.1
31044.1
30626.5
30525
30422.5
30413.2
30337.5
30189
30222.6
30165.1
30612.8
30590.6
30773.9
30561.1
30866.8
30843.7
30966.6
30939.5
31028.8
31109.7
31214.6
30780.9
30785.3
30720.5
31030.8
31061.5
31143.9
31533.9
31494.7
31398.9
31276
30931.9
30894.9
30933.6
30639.3
30663.1
30269.1
30192.8
30072.6
29949
29922.6
29773.8
29603.2
29647.8
29606.6
29269.2
29422.7
29591.4
29878.2
29737.8
29973.1
30078.2
30105.8
30200.9
30347.6
30387.2
30316.3
30672.4
30719.3
30781.3
31269.8
31207.6
31121.3
30973
30569.2
30558.5
30584.9
30248.3
29920.8
29910.4
29795.8
29646.3
29494.9
29488.7
29267.6
29055.3
29087.6
29022.9
28629.1
28784.9
29033.4
29343.1
29216.1
29499.6
29669.9
29661.1
29783.6
29951.7
30025
29986.6
30355.6
30442.1
30501.3
31062.6
30981.5
30903
30711.3
30288.6
30281.9
30277.2
29974.5
29550.5
29533.4
29370.9
29194.7
29007
28970.8
28645.2
28428.4
28459.4
28396.8
27913.9
28057.9
28435.8
28728.8
28621.8
28882.9
29160.8
29188.4
29345.8
29540
29652.5
29616.6
30056.2
30155.9
30172.6
30862.3
30787.7
30709.5
30457.2
29961.5
29996.4
29791.8
29732.5
29273.3
29215.4
29010.3
28787.4
28560.2
28524.6
28104.1
27840.4
27823.3
27754.2
27157.2
27292.7
27821.3
28077.6
28051.2
28369.8
28747.2
28759.5
28962.2
29191.6
29348.3
29348.8
29815.5
29956.1
29942.7
30686
30678.6
30575.2
30252.3
29740.2
29498.9
29595.8
29520.3
28997.3
28933.6
28651.2
28377.7
28120.6
28035.1
27487.6
27199.4
27150.2
27089.1
26214.6
26370.7
27155.7
27399.7
27419.8
27739.5
28263.7
28333.6
28568.6
28842.3
29067
29072.6
29606.1
29761.6
29688.9
30521.8
30586.6
30495.2
30075
29986.5
29332.7
29443.7
29259.5
28821.8
28684.3
28311.9
27876.9
27693.1
27608.3
26877.5
26395.4
26483
26416.6
25100.4
25257.5
26426.7
26718.2
26585.3
27135.4
27867.9
27901.6
28074.4
28497.5
28814.6
28892.8
29352.1
29628.6
29520.8
30465.2
30516.8
30450.7
30190.9
29844.5
28787.7
29261.3
28762.7
28425.6
28206
27978.6
27129.2
27247
27104
26148
25089.9