/*--------------------------------*- C++ -*----------------------------------*\
  =========                 |
  \\      /  F ield         | OpenFOAM: The Open Source CFD Toolbox
   \\    /   O peration     | Website:  https://openfoam.org
    \\  /    A nd           | Version:  7
     \\/     M anipulation  |
\*---------------------------------------------------------------------------*/
FoamFile
{
    version     2.0;
    format      ascii;
    class       surfaceScalarField;
    location    "19";
    object      phi;
}
// * * * * * * * * * * * * * * * * * * * * * * * * * * * * * * * * * * * * * //

dimensions      [0 3 -1 0 0 0 0];

internalField   nonuniform List<scalar> 
42560
(
-0.0154526
0.00534998
-0.00309686
-0.00143988
0.000772831
0.0138704
-0.00137696
0.00011269
-0.00122971
-0.000192907
0.000917538
-0.00461395
0.0083359
-1.30975e-05
0.00512542
0.000183201
0.000466121
0.00601177
-0.00023917
-0.000557167
0.00691912
-0.000597002
-0.000251074
0.00286938
-9.19687e-05
0.000371782
0.0021845
5.50049e-05
0.00125371
0.00022532
0.000430739
0.00220669
-0.00130212
-9.52283e-05
0.00189144
-0.00184415
0.00060429
0.00172836
-0.000531379
0.000140301
0.000691118
0.00161497
0.000489341
0.000237803
0.00259723
2.3251e-05
0.000148806
0.00237999
-2.64136e-07
0.000124125
0.00201027
-9.03785e-05
-0.000331396
0.00367971
-0.000277823
-3.15005e-06
0.00266253
-0.000182776
0.000132152
0.0022256
-9.37167e-05
-0.00045159
0.00401037
-0.00028168
9.09884e-06
0.00286344
-0.000177671
8.56637e-05
0.00236809
-6.01124e-05
-0.00048126
0.0042311
-0.000197025
-9.90943e-05
0.00301615
-9.36001e-05
-0.000328693
0.00245501
5.76311e-05
-0.00139737
0.00256001
0.000368562
-0.00250152
0.000357591
0.000723845
-0.00319141
-0.000860951
0.00024659
-0.0029617
-0.00116293
-0.000473428
-0.00433101
-0.000796037
0.000222378
-0.00504262
-0.000714167
-0.000348967
-0.00545908
-0.000728305
-0.000722616
-0.00702482
-0.000349536
-8.9938e-05
-0.0127102
0.00127131
0.00209822
-0.0137433
0.0013818
-0.00268218
-0.0134342
-0.00123643
-0.00376989
-0.0128271
-0.00368588
-0.00406998
-0.0150605
-0.00553844
-0.00162503
-0.0258974
-0.00890532
0.00327936
-0.0207019
-0.0162302
-0.00682817
-0.0223298
-0.0132134
-0.0030159
-0.0362593
-0.0171837
0.00367163
-0.0229638
-0.0281419
-0.0138625
-0.0236853
-0.0226032
-0.00427993
-0.0326033
-0.0281972
-5.99909e-05
-0.0151026
-0.0417572
-0.0152689
-0.0130847
-0.0272419
-0.00467949
-0.0142465
-0.0311237
-0.00617207
-0.00884745
-0.0365968
-0.00843012
-0.00542204
-0.0389465
-0.00864477
0.00109784
-0.0392593
-0.0102957
0.00642209
-0.0404674
-0.00865932
0.00899094
-0.0401556
-0.00735876
0.0127193
-0.0404825
-0.00623046
0.00626627
-0.0386792
-0.000909891
0.00191839
-0.0353348
0.00085864
0.0109954
-0.0533582
-0.00319606
0.00412718
-0.0432561
-0.00119439
-0.00967479
-0.032166
0.000745518
0.00121742
-0.0613492
-0.00388836
-0.00333964
-0.0470899
-0.0037104
-0.00603112
-0.0387144
-0.000800135
0.00905802
-0.0610906
-0.0088411
0.00274609
-0.0449525
-0.0046543
0.000100169
-0.0354932
-0.00103968
0.00908971
-0.0492998
-0.00810181
0.0234417
-0.058873
-0.0132918
0.0358165
-0.063424
-0.0173406
0.0178368
-0.0301078
0.000759976
0.0117841
-0.0199394
-0.00401338
0.0113428
-0.023469
-0.00321103
0.00106527
-0.0228484
0.00460517
-0.0141893
-0.0202388
0.00158052
-0.0314553
-0.0297624
0.00249881
-0.0226598
-0.0629017
-0.0136743
-0.00688139
-0.0574913
-0.0105545
-0.00432583
-0.0523362
-0.00544219
-0.00744393
-0.0283232
-0.00402221
-0.0191994
-0.0455766
-0.00518983
0.00295272
-0.0582649
-0.0125729
-0.0126917
-0.0376106
-0.00446218
-0.0134699
-0.047357
-0.0056397
0.000137536
-0.0639655
-0.0102016
-0.000132525
-0.040479
-0.000553877
-0.0085625
-0.0474503
-0.00403835
0.00614091
-0.060168
-0.00687367
0.00192756
-0.0354292
-0.000675745
-0.000293235
-0.0399263
-0.00326558
-0.000510493
-0.0426072
-0.00373027
-0.000778842
-0.0453886
-0.00412103
-0.000420846
-0.044707
-0.00402056
0.000133183
-0.0446041
-0.00409926
-0.000234753
-0.0455815
-0.00412825
0.00026552
-0.0424008
-0.00395656
-0.00224352
-0.0402497
-0.00355754
-0.00490559
-0.0355653
-0.000694486
0.00811883
-0.0623314
-0.00712552
0.00286963
-0.0496548
-0.00380544
-0.00268449
-0.0442889
0.000193981
0.0145478
-0.0672309
-0.00820414
0.00678018
-0.0514964
-0.00298228
0.00360514
-0.0443101
-0.000532208
0.0177828
-0.0635536
-0.00796669
0.00546191
-0.0482156
0.00142477
2.94293e-05
-0.0388785
0.00193857
0.00402165
-0.0491939
-0.00228285
0.0151813
-0.0607872
-0.00930459
0.0223578
-0.0666448
-0.0107395
0.00102963
0.00438845
-0.0359015
-0.0139114
0.00182802
-0.0246048
-0.0156173
-0.000512825
-0.0304805
-0.0106385
-0.00786108
-0.0302173
-0.0168336
-0.00619046
-0.0262529
-0.0310682
-0.00292014
-0.0360007
-0.015386
-0.0214981
-0.0736413
0.0039055
-0.0152358
-0.0634299
0.00646056
-0.00733173
-0.0546942
0.000656584
-0.00468481
-0.0314262
-0.0111839
-0.00739113
-0.0526561
0.00784453
-0.00603051
-0.0621839
-0.00239992
0.00171757
-0.0417792
-0.00516542
0.000426684
-0.0439733
0.00280987
-0.00409361
-0.0581976
0.00101366
0.00214393
-0.0365177
-0.00809565
0.000434692
-0.0418737
0.00524485
-0.00525629
-0.0536354
0.0013561
0.000974809
-0.0329975
-0.000901669
-0.00184725
-0.037997
-0.00281556
-0.0017416
-0.0423379
-0.00384811
-0.00350035
-0.0473042
-0.00454641
-0.00199185
-0.0472828
-0.0047291
-0.00341523
-0.046899
-0.00387754
-0.00504317
-0.0444436
-0.00451921
-0.00422944
-0.0418049
-0.0066661
-0.00415793
-0.0391532
-0.00960753
-0.00110613
-0.0336202
0.000994424
-0.00567404
-0.0562692
-0.00145261
-0.00542922
-0.0436867
-0.00527731
-0.00166708
-0.0381135
0.013277
-0.0102483
-0.0609566
0.00794849
-0.00547289
-0.0467156
0.00758226
-0.00369825
-0.0389295
0.0273228
-0.0152817
-0.058941
0.0167269
-0.00219801
-0.0395652
0.0161333
-0.00396865
-0.0305476
0.024382
-0.00999661
-0.0383682
0.0331068
-0.0122898
-0.0377387
0.0375818
-0.0158832
-0.0303754
0.0178905
0.00395247
-0.011901
0.00842606
-0.000389349
-0.00884049
-0.00376279
0.00344509
-0.010537
-0.00742177
-0.00769657
-0.0131275
-0.014508
-0.0129036
-0.016575
-0.0233847
-0.0170584
-0.0282266
-0.00158634
-0.037458
-0.0647462
0.0171828
-0.0267749
-0.0454823
0.0139949
-0.015588
-0.0255025
0.0088636
-0.00862786
-0.00930785
0.00907205
-0.00927366
-0.00423191
0.00898301
-0.00243325
0.00233976
0.00595679
0.0014136
0.00265228
0.000274982
0.00516528
0.00107999
0.000421096
0.00508249
0.00362837
0.00401176
-0.00217898
-0.0037976
0.0367828
0.0132131
-0.00644367
-0.0191007
0.0121602
0.00295916
0.00345325
-0.0116094
-0.00339811
-0.00508188
-0.0287433
-0.0362453
0.00204028
-0.0358968
-0.0647704
0.00255986
-0.040221
-0.0780384
0.0389796
-0.0110486
-0.0399497
-0.0563052
0.0116313
-0.00949908
-0.00704389
-0.00614114
-0.00506489
-0.0202077
-0.0086713
-0.0107989
0.00773272
-0.00601924
-0.0113289
-0.00146495
-0.00935821
-0.000824608
-0.011568
-0.00320521
0.00641392
0.0229568
-0.0126191
-0.0250868
-0.0106581
-0.00967649
-0.0213778
-0.0346097
-0.00150094
-0.0215867
-0.0423288
-0.0105603
-0.0112881
-0.0239511
-0.0143039
-0.00785155
-0.0276252
-0.00681906
-0.0696007
0.00418959
-0.0251108
-0.0753952
-0.00594711
-0.0156584
-0.0241718
-0.0189838
-0.000868506
-0.0240597
-0.0160991
-0.0854988
0.00927938
-0.0145419
-0.081396
0.00183833
-0.0139084
-0.0135078
-0.0175893
0.00303526
-0.0118919
-0.0179218
-0.0859999
0.00982041
-0.00695062
-0.0705888
0.00466821
-0.0116123
-0.00367008
-0.015075
0.0108573
-0.00726838
-0.0142194
-0.0681194
0.00317906
-0.0161074
-0.00524617
-0.0160898
0.0100705
-0.00865355
-0.013525
-0.0690344
0.00321064
-0.016703
-0.00188008
-0.0169921
0.00959751
-0.00784489
-0.0117592
-0.068233
0.00210338
-0.0160823
-0.00305097
-0.0163339
0.00621558
-0.00801299
-0.00967242
-0.0657826
-0.000182459
-0.0144758
-0.00324001
-0.0114865
0.00379463
-0.00742767
-0.0672992
0.0106072
-0.00952416
-0.0105759
-0.0774672
0.00106446
-0.0172205
-0.00100399
-0.0139528
0.00525285
-0.005955
-0.0761599
0.00923964
-0.0105571
-0.00988103
-0.0827938
-0.000208259
-0.0181154
-0.00528223
-0.0144989
0.00478872
-0.0107807
-0.0771413
0.0205922
-0.0133573
-0.0204818
-0.0744882
0.000785342
-0.0149575
-0.00919881
-0.0118334
-0.00104227
-0.0181646
-0.0548221
0.00696609
-0.0249077
-0.0655739
0.01585
-0.0310574
-0.0755159
0.0255962
0.00267718
-0.027199
-0.0599504
0.0134605
-0.0113468
0.00286045
-0.00905961
0.011833
-0.0176678
-0.031961
0.0110523
0.00178121
-0.0351068
0.00818235
-0.00877736
0.00325423
-0.0129358
-0.011537
0.00522471
-0.0047597
-0.0588898
-0.00832317
0.00401882
-0.0540661
-0.0195708
-0.0481235
-0.00502194
-0.0192012
0.00519362
-0.0295577
-0.00534156
-0.0344877
-0.048695
0.000719742
-0.0491655
-0.0593046
0.00576026
-0.0407389
-0.066233
-0.0298012
-0.0742375
0.00958704
-0.0435678
-0.00556815
-0.0716098
0.00692991
-0.0318624
-0.0711348
-0.0174909
-0.0821447
0.00839571
-0.0304413
-0.0126255
-0.066204
0.00581102
-0.0229979
-0.0732166
-0.0158872
-0.0821987
0.00986684
-0.0266941
-0.0109782
-0.0694899
0.00548702
-0.0201453
-0.0691794
-0.0124499
-0.0745949
0.00698311
-0.0211399
-0.0142721
-0.0703622
-0.012661
-0.0805291
0.00871586
-0.0222252
-0.0167383
-0.0736149
-0.0136596
-0.0837943
0.00900578
-0.0215196
-0.0196161
-0.0755392
-0.0139605
-0.0859369
0.00975076
-0.021275
-0.0205187
-0.0760556
-0.0128566
-0.0845805
-0.0216937
-0.0192909
-0.0781675
-0.0337889
-0.0279856
-0.0638385
0.0261918
-0.0431225
-0.0309959
-0.0457174
-0.0310472
-0.0653849
0.0308069
-0.0375134
-0.0378304
-0.040913
-0.03022
-0.0580027
0.0296063
-0.0384517
-0.0340271
-0.0369838
-0.0233918
-0.060768
0.0316743
-0.0274067
-0.0395027
-0.0349102
-0.0204617
-0.0563993
-0.0237082
-0.0348595
-0.0384611
0.0236277
-0.110555
-0.0515183
0.034407
0.0320744
-0.0809663
-0.0450514
-0.0247511
0.0442343
-0.123381
-0.0924801
-0.0661995
-0.0374875
-0.028569
0.0509166
-0.121163
-0.148239
-0.120409
0.0399702
-0.0297422
-0.0428432
0.0322655
-0.0332328
-0.0516404
0.0234244
-0.0229203
-0.0736866
-0.0164264
-0.0889068
-0.0346786
-0.021276
-0.0707928
-0.0404564
-0.0284201
-0.0560273
0.0343634
-0.0934357
-0.158542
-0.178491
0.0406768
-0.0440109
-0.0573769
0.0319696
-0.026832
-0.0634493
-0.0138793
-0.078226
-0.0377411
-0.0167793
-0.0602732
-0.0475558
-0.0300608
-0.0564647
-0.0662127
-0.0345176
-0.0544399
0.0606574
-0.107389
-0.178642
-0.198629
0.0460007
-0.0260115
-0.0459209
0.0412795
-0.0330435
-0.0412339
0.0311694
-0.0144152
-0.0493182
-0.00334948
-0.0529991
-0.0339958
0.0004245
-0.0249945
-0.0423206
-0.0105779
-0.0174712
0.0450765
-0.0229539
-0.141572
-0.0527516
0.0343165
-0.00199785
0.00224202
0.00453498
0.00314072
-0.00395975
0.00065736
0.0650094
-0.0252607
0.00143188
0.105136
0.0140131
0.018066
-0.0215613
0.324685
-0.00466261
0.00877867
0.0826673
-0.00880245
0.00312287
0.0435199
0.00274904
0.013343
-0.0327591
-0.0351134
-0.0432853
0.00812898
-0.059043
-0.0429575
0.00864237
-0.0767572
0.0477396
0.0105346
-0.157684
-0.287876
0.0466611
0.00678522
-0.0784814
0.00455972
-0.0659404
-0.0454462
-0.000221694
-0.0772852
-0.0372062
0.000107204
-0.0933892
0.0285291
-0.00984496
-0.0330915
-0.12675
-0.373538
0.0405329
-0.00805851
-0.0893393
0.00142074
-0.0797898
-0.0354633
-0.0625717
-0.0396211
-0.000245666
-0.0882275
-0.0401252
-0.00471917
-0.0893566
-0.0481824
-0.00988817
-0.0824669
0.0227214
-0.0206921
0.0210474
-0.0644939
-0.0898541
0.0173423
-0.00632417
0.0148892
0.0164212
-0.0014203
0.0365698
0.000227261
0.0455423
-0.00617696
-0.00394176
0.0442683
-0.00704887
-0.000965459
0.047368
-0.0180611
-0.00166774
0.0546649
0.00996818
-0.0100204
0.152729
0.00520653
0.000219082
0.00441594
-0.000315581
0.0328232
0.00330031
-0.00114735
0.0278032
0.0259477
0.0222187
0.00782444
-0.000641082
0.0018908
0.0125335
-0.00257579
0.0198295
0.00379536
-0.0113719
-0.0145457
-0.00777873
0.0222979
0.0125504
-0.00567117
-0.0105109
0.00805597
-0.00642853
-0.00460574
-0.0034121
0.00574044
-0.00339828
-0.00571265
0.000298181
0.00186836
-0.0010624
-0.00056606
0.000144155
0.000716028
-0.000753986
0.00682802
0.000274841
-7.64766e-05
0.00200198
0.000186657
0.00121389
0.000461901
0.000430345
0.00158897
-0.00116214
0.0010103
0.00212271
-0.00164827
-0.000188918
0.00141418
-0.0018337
0.000696746
0.0011327
-0.000135006
-0.00011497
0.000246131
0.00197859
0.00052338
2.33425e-05
0.00252389
0.000296701
3.7526e-05
0.00212549
0.000241013
9.52002e-05
0.00181037
0.000143497
-0.000127654
0.00369849
0.0002055
5.64979e-06
0.00233158
0.000197577
0.000101814
0.00196443
0.000166252
-0.000147257
0.0040408
0.000219789
9.09059e-06
0.0024807
0.000226141
0.00012998
0.00205712
0.000191094
-7.38467e-05
0.00413194
0.000303666
8.28548e-05
0.00256931
0.000289703
0.000247117
0.00210306
0.000188202
0.000265292
0.00227547
0.000266498
0.000957123
-0.000399984
6.51557e-05
0.00189165
-0.00156086
-0.000234857
0.000365974
0.000313816
4.81904e-05
-0.000375563
7.56827e-05
-0.000129419
-0.00105719
-2.67652e-05
-4.8093e-06
-0.00153909
-0.000407138
0.000161134
-0.00153757
-7.64652e-05
-0.000274065
-0.00306784
0.00211457
0.000687154
-0.000930173
0.000927859
-0.00168235
-0.00277656
0.00202694
-0.00141804
-0.00529155
0.000700377
-0.00187279
-0.00802795
-0.00131505
-0.00148996
-0.0166207
-0.00330287
0.00298757
-0.0162601
-0.0128209
-0.00377266
-0.0178857
-0.00827094
-0.00332011
-0.0321935
-0.00772136
0.00484323
-0.0232404
-0.0215471
-0.0155501
-0.0222672
-0.0169134
-0.00666452
-0.0326591
-0.0183708
0.000564927
-0.0155337
-0.0392476
-0.0196358
-0.0126745
-0.0224904
-0.00761159
-0.0148133
-0.0236911
-0.00529452
-0.00899417
-0.031026
-0.0113903
-0.00591681
-0.0329484
-0.00907589
0.000765757
-0.0345002
-0.0114418
0.00690197
-0.0354411
-0.0111627
0.00886863
-0.0344138
-0.0077087
0.0124998
-0.0343684
-0.00974561
0.00522528
-0.0307682
-0.000637251
0.000184228
-0.0278583
-0.00243593
0.00837008
-0.0526598
-0.00888453
0.000650295
-0.0329234
-0.00261295
-0.00434228
-0.0234765
-0.00369696
-0.000811114
-0.0548341
-0.010046
-0.00259364
-0.0393332
-0.00597422
-0.00642401
-0.0319555
-0.00292876
0.00632822
-0.0600627
-0.0137803
0.00223066
-0.0365204
-0.00433457
-0.0010146
-0.028952
-0.00329592
0.00791758
-0.0461557
-0.0120766
0.0201801
-0.0529779
-0.0181577
0.0355971
-0.0571268
-0.0217144
0.0104707
-0.00739979
0.00241822
0.0121437
-0.0165671
-0.00504603
0.00877338
-0.0182384
-0.00186119
-0.00283977
-0.0162211
0.00498627
-0.00773436
-0.0137093
-0.00163418
-0.0318572
-0.00865544
0.00301633
-0.0200946
-0.0572716
-0.0173928
-0.00773377
-0.0541619
-0.0156912
-0.00266033
-0.045456
-0.0119541
-0.00413959
-0.0195366
-0.00730717
-0.0159596
-0.0280531
-0.00570357
0.00104925
-0.0543739
-0.0209002
-0.00335524
-0.025237
-0.00796902
-0.0127545
-0.0323245
-0.00563295
0.00291
-0.0628074
-0.0168226
-0.000262506
-0.0338164
-0.00349042
-0.00371461
-0.0382973
-0.00570114
0.00614803
-0.0575347
-0.0124965
0.00188799
-0.0283395
-0.00283002
0.000108602
-0.0326452
-0.00550194
-0.000845664
-0.0354664
-0.00618656
-0.000773306
-0.0388552
-0.00660583
-0.000354794
-0.0384892
-0.00663635
-1.61097e-05
-0.0384329
-0.00650997
0.000221204
-0.0390913
-0.00672764
-0.000582734
-0.035451
-0.00614601
-0.00194323
-0.033124
-0.00576566
-0.0058231
-0.0288041
-0.0028818
0.00406518
-0.0593015
-0.0129188
0.00148088
-0.0405717
-0.00649925
-0.00273063
-0.0361755
-0.00390225
0.010088
-0.0655572
-0.0144932
0.00628182
-0.0421267
-0.00556369
0.00320574
-0.0361952
-0.00503925
0.0142603
-0.0609577
-0.0136519
0.0048789
-0.0382501
-0.000584405
-0.00145852
-0.0306926
-0.00184905
0.00166862
-0.0453817
-0.00693992
0.0102744
-0.0547106
-0.0146828
0.0214707
-0.0619451
-0.0158967
0.000921218
-0.0174303
0.00207734
-0.00956222
-0.0148934
0.000770111
-0.0144206
-0.000921793
-0.0247019
-0.0112567
-0.00823915
-0.0251423
-0.0092911
-0.0210261
-0.00719262
-0.031217
-0.0136563
-0.000418412
-0.0110649
-0.0681978
-0.0255958
0.00283284
-0.0575562
-0.0197716
0.00373385
-0.0427643
-0.012831
0.00106772
-0.0211352
-0.00762446
-0.00619777
-0.0366148
-0.00877582
0.00618901
-0.0622335
-0.0123372
9.65624e-05
-0.0341812
-0.00150525
-0.00455849
-0.0381657
-0.00115245
0.00469291
-0.0572551
-0.0101947
0.00016436
-0.0312616
-0.000727606
-0.00528006
-0.0352694
-0.00115996
0.00483777
-0.0527745
-0.0109792
0.00138342
-0.0269258
-0.00261805
-0.000575138
-0.0309644
-0.00507484
-0.00280101
-0.0340898
-0.00602318
-0.00323407
-0.0406788
-0.00619293
-0.00348458
-0.0407792
-0.00625318
-0.00432707
-0.0407351
-0.00532166
-0.00170047
-0.0387183
-0.00835179
-0.00398309
-0.0331112
-0.0064113
-0.00496216
-0.0311625
-0.00701208
-0.0095293
-0.026309
-0.00274447
-0.00160554
-0.0528827
-0.0113105
-0.00214119
-0.0357141
-0.00743762
-0.00532424
-0.0310006
-0.00393033
0.00953611
-0.0603397
-0.0154775
0.00679208
-0.0375257
-0.00644617
0.00749802
-0.0325281
-0.00710758
0.0261867
-0.0577
-0.0199303
0.016736
-0.0285952
-0.00151962
0.0170307
-0.0240205
-0.00682329
0.0256974
-0.0342595
-0.0127772
0.0317109
-0.0285148
-0.0152385
0.0327214
-0.0155931
-0.0157929
0.00973123
0.00565702
0.00543237
0.00646009
-0.000103364
-0.00546631
-0.00720982
-0.0026347
0.00576702
-0.0124944
-0.00658737
-0.00125775
-0.00843419
-0.0111389
-0.00949752
-0.023934
-0.00379171
-0.00893421
0.00691548
-0.0582801
-0.0373159
0.0182866
-0.0291487
-0.0277054
0.0137075
-0.00633379
-0.0145909
0.0119809
-0.00466024
-0.00292271
0.0141017
-0.00354977
-0.00280741
0.0100509
0.00563128
0.00075421
0.00668889
0.00364693
0.00236391
0.00582984
0.00528912
0.000733582
0.000626101
0.0104322
0.0050286
0.000862914
0.000734751
0.00117454
-0.00449975
0.0051501
0.00382082
-0.00480907
0.00177339
0.00657737
-0.00500497
-0.00553864
0.00697652
-0.00860915
-0.0175571
0.0257653
0.0112897
0.0389864
-0.0210147
-0.0183454
0.0271186
0.00608664
-0.00357668
-0.00719828
0.00349467
-0.00210163
-0.0189106
0.0103912
0.0075628
-0.00624485
-0.0117298
-0.00970734
0.0105695
-0.00511075
0.00542947
-0.00631585
-0.000291325
0.00353757
-0.00461115
-0.00375001
0.000855673
-3.27079e-05
-0.000553285
-0.000563934
0.00138763
0.000324125
-0.000396358
0.000647474
-0.000599611
0.000175533
0.000152062
-0.000776024
-0.000377704
-0.000221038
-0.000995284
-0.000465697
-0.00075421
0.0003956
3.07288e-06
-0.000479947
0.00151258
0.000191625
-0.000406471
0.00186662
0.000585777
-7.1623e-05
0.00131321
0.00047958
5.98789e-05
0.0012802
0.000401009
-0.000165467
0.00299655
0.000929056
-1.33622e-05
0.00165579
0.000525658
0.000141982
0.0013583
0.000452873
-0.000179344
0.00333949
0.00102416
-6.74993e-06
0.00175868
0.000550795
0.000182225
0.0013959
0.000473744
4.53767e-05
0.00324399
0.00102545
0.000161895
0.00186044
0.000592742
0.000640487
0.00127832
0.000346848
0.00119165
0.00140128
0.000322506
0.00134583
-9.23304e-05
-0.000462572
0.000580171
-3.06273e-05
-0.000764098
-0.00118199
0.000492208
0.00149368
-0.000222704
0.000846762
-0.00163597
0.000574336
0.00114814
-0.00038196
0.000856348
-4.95254e-05
-0.000258831
0.000571242
-0.00035275
0.00023198
-0.000737793
0.00192062
-0.000833298
0.000222072
0.000746734
0.000557297
0.00315172
0.000630198
-0.00110878
0.00394601
0.00141571
-0.00128339
0.00511952
0.00176393
-0.000912668
0.00593274
0.000805011
-0.0009208
0.00294756
0.000604043
0.00106276
0.000893629
-0.00239424
0.00113917
-0.0101085
-0.00217659
0.000350602
-0.0105284
-0.00495923
-0.00289591
-0.0260831
0.00177176
0.00605711
-0.0196066
-0.0174215
-0.0106063
-0.0161341
-0.011725
-0.00866101
-0.0327925
-0.00114343
-0.000570185
-0.0130707
-0.0345677
-0.0244024
-0.00898352
-0.0165504
-0.0100272
-0.0164516
-0.0107546
-0.00546906
-0.00703239
-0.0257147
-0.0147312
-0.00704571
-0.0224014
-0.010534
0.000545331
-0.0284837
-0.0136076
0.0083672
-0.0291004
-0.0141628
0.00683565
-0.0240649
-0.00881773
0.0128357
-0.0274283
-0.0129405
0.00353147
-0.0175925
-0.00387138
-0.000815601
-0.0176354
-0.00587598
0.00488461
-0.0433484
-0.0150119
-0.00242925
-0.01938
-0.00622997
0.0130912
-0.013831
-0.00168972
-0.00832781
-0.00205664
-0.00226132
-0.0430985
-0.0178022
-0.00157637
-0.0303834
-0.00963446
-0.00602994
-0.020297
-0.00720496
0.00592498
-0.0493481
-0.0226698
0.00152961
-0.0243067
-0.00781831
-0.00147843
-0.0185983
-0.00734582
0.00307057
-0.034474
-0.016231
0.0116593
-0.0417902
-0.0197766
0.0165356
-0.0411007
-0.0209031
0.0346805
0.0331032
-0.0383073
-0.0129418
0.00135687
0.00935449
0.0160052
0.00595481
0.0124988
0.00510378
-0.00534921
-0.00198712
-0.0096824
-0.00390951
0.00247591
-0.021889
0.00204077
0.00152164
0.00864534
0.0308869
-0.0325314
-0.0119431
-0.00830053
0.0105645
0.00447118
0.00132427
0.00319658
0.00157298
-0.002641
0.00418362
0.0035424
-0.00061304
0.00626023
-0.00742744
-0.000149776
0.00853318
0.000956553
-0.00322927
0.00532402
-0.0103508
0.00211232
-0.00666155
0.0106132
-0.0242076
-0.00632699
0.0168632
-0.00147546
-0.0381553
-0.000643575
0.0195779
-0.00752723
-0.0215933
0.00107848
0.0120343
-0.000461892
0.00925121
0.00527618
0.00668781
0.0436969
0.00940046
0.0841437
0.00706013
0.0117793
0.0822457
0.01378
0.127164
0.0103428
0.0924727
-0.0131225
0.228136
-0.00572368
0.09665
-0.00924839
0.296629
-0.00550816
0.0157168
0.0144195
0.442724
-0.0780896
-0.00978693
0.00762701
0.524667
-0.00745998
0.070246
0.0733905
0.0825828
-0.0194473
1.78788
0.0606867
0.0766386
0.0609641
0.0544073
-0.0124166
1.94659
0.00461131
0.0103507
-0.0330625
0.51332
0.0344626
0.00461332
-0.00630371
0.371617
0.0382859
0.0133802
0.00756337
0.445356
0.0403522
0.066654
0.0039445
0.376224
0.0486784
0.0143632
0.377772
-0.164765
-0.120619
0.109707
-0.135253
-0.153802
0.119504
-0.176269
-0.249188
-0.17505
-0.181979
0.122257
-0.116214
-0.126108
-0.177339
-0.121147
-0.0673158
0.0771059
-0.0486839
-0.0269022
0.00273479
-0.0612325
0.021624
0.136689
-0.0335571
-0.0501382
0.027384
0.0642563
-0.0647704
0.0729997
-0.0748131
0.0228215
-0.0154952
0.0462936
-0.0366858
0.0151533
-0.0420512
-0.0466141
-0.0351978
-0.0652287
-0.0256264
0.0482056
0.0312333
-0.0429459
-0.0637271
0.0351744
0.0642804
-0.0279797
-0.0178672
0.0313228
-0.0741874
0.0510533
-0.0332664
-0.0758966
0.0349368
-0.0318411
0.0549338
-0.0917772
0.0433703
0.0121429
-0.0396328
-0.00729679
-0.0179
-0.0344377
-0.0321431
-0.0068928
0.0667928
-0.0310353
-0.0361614
-0.005612
0.0819144
-0.0416592
-0.0415356
-0.00298457
0.0739768
-0.0398602
-0.0367434
0.000562439
0.0797498
-0.0406821
-0.0426145
0.00421188
0.0811652
-0.0418183
-0.0429967
0.00658091
0.0750045
-0.036782
-0.040592
0.00954261
0.0837403
-0.0427725
-0.0439309
0.00940371
0.0679273
-0.0304902
-0.0372988
0.00845922
0.0815863
-0.0389138
-0.0417297
0.00538458
0.065104
-0.0271
-0.0349306
-0.0218339
0.0853294
-0.027431
-0.030681
0.00248056
0.0789419
-0.0623927
-0.040864
0.000632083
0.0677509
-0.0387061
-0.0271964
-0.0270389
0.0805082
-0.0304793
-0.0223581
-0.005576
0.0729658
-0.0358922
-0.0585367
-0.00705909
0.0691131
-0.0294751
-0.0381553
-0.0318465
0.066446
-0.0175873
-0.0240719
-0.032907
0.0598672
-0.0363717
-0.0224359
-0.00764801
0.0364873
-0.0347998
-0.026949
0.0272892
-0.0234618
-0.00492756
-0.00655193
0.0330348
0.030897
-0.0278179
-0.00882849
0.0151906
0.081453
-0.0471721
-0.0164378
-0.0111548
0.0835355
-0.0443841
-0.012806
-0.0377085
0.0622016
-0.0280005
-0.0076476
-0.0411504
-0.0252003
0.00760536
0.0210334
-0.0480827
0.00284729
0.00388439
0.000186835
-0.040782
-0.00896155
0.0158334
-0.0141876
-0.024913
-0.0066885
-0.0153866
0.00618952
-0.0165354
-0.00442915
-0.0126769
0.00871946
-0.00884325
0.00649033
-0.00732555
-0.00686487
-0.0138039
-0.00443433
0.00520739
0.00418405
-0.00813696
-0.00800808
0.00776074
-0.00412651
0.00546904
-0.00594885
-0.000966247
0.00150238
-0.00470175
-0.000496517
-0.00185056
-0.00143878
0.00485369
0.00104925
-0.00496251
-0.00087063
-0.0011698
-0.00422623
0.00583676
0.00149671
-0.00397791
0.00104242
-0.00189055
-0.00295984
0.00544005
0.00190183
-0.00334025
0.00095657
-0.00132292
0.00199516
0.00442119
-0.0024621
-0.00336761
0.00595861
0.00260631
-0.00320205
0.00108896
-0.00144258
0.0021357
0.00495129
-0.00265811
-0.00362992
0.00664539
0.00238061
-0.00326028
0.00104006
-0.00151797
0.00217779
0.004805
-0.00269849
-0.00324128
0.0061368
0.0026373
-0.00335563
0.00140902
-0.00151318
0.00152015
0.00331188
-0.00202199
0.00128702
0.00297599
-0.00283564
0.0010984
0.00399645
-0.00383924
0.00233068
0.00520029
-0.00493871
-0.00129272
0.00238139
0.00602117
-0.00477997
0.00122606
-0.0014204
0.00043295
-0.000391612
0.00207655
0.00553387
-0.00479528
0.00296101
0.00575356
-0.0060083
0.00403083
0.00750367
-0.00715865
0.00557645
0.00719264
-0.00697608
0.00624481
0.00373693
-0.00360338
0.00399378
0.000453353
0.014506
-0.0128138
0.0173106
-0.0150124
0.00440466
0.0107855
-0.00286807
-0.00136552
0.00257434
0.00424304
-0.0191667
0.0287748
-0.0152211
-0.0112686
-0.00776864
0.00585043
-0.0296029
0.00546286
-0.00377582
0.000570102
-0.037348
0.0109489
-0.000975043
-0.051293
0.0139237
-0.0379106
0.00962998
0.0205187
-0.022139
-0.0541331
0.0178425
-0.0442971
0.0166998
0.0398617
-0.0550225
-0.0512895
0.0221532
-0.0361148
0.0183925
0.0470336
-0.0602343
-0.0471514
0.0242371
-0.0242308
0.0197714
0.0372941
-0.0567436
-0.0332868
0.0285056
-0.014518
0.0165844
-0.0360001
-0.0533422
0.0314761
0.0342349
-0.0583727
-0.0413085
0.0294456
-0.0107274
0.0117556
-0.0279072
-0.0586279
0.0327085
0.052963
-0.0781696
-0.0326627
0.0299617
-0.018402
0.0206849
-0.0289367
-0.0672645
0.0284509
0.0487562
-0.0748112
-0.0262724
0.0233906
-0.0116356
0.0174869
-0.00498396
-0.0607631
0.0196371
0.000380963
-0.0656197
0.0184644
0.0062055
-0.064561
0.0176351
0.00806442
-0.0597953
0.0196278
0.0135831
0.000466014
-0.0219159
0.0159305
0.00504667
0.00914418
-0.00565271
0.00831436
-0.00313296
-0.0237642
0.0217125
-0.00305768
-0.0521151
0.0195095
0.0400928
-0.057945
-0.00428145
0.0190757
-0.0131755
-0.015948
-0.00806744
-0.0422086
-0.0170625
-0.00662914
-0.0338745
-0.0130208
0.00995123
-0.0140888
-0.0024917
-0.00692716
-0.00265837
-0.0167465
-0.0139053
-0.00432862
-0.0018154
-0.0487355
-0.0205695
0.0170032
-0.0162805
-0.00253864
-0.0053422
-0.00289212
-0.00962089
-0.0219088
-0.00613746
0.00495325
-0.0545794
-0.022802
0.000129922
-0.0213717
-0.00762149
-0.00166693
-0.0269554
-0.00954517
0.00615982
-0.0448584
-0.0205035
0.00147326
-0.0174803
-0.00617292
-0.00040301
-0.0221049
-0.00866405
-0.000681416
-0.0249919
-0.0101962
-0.00116618
-0.0280711
-0.0102993
-0.000310016
-0.0287689
-0.0105766
2.84099e-05
-0.0284477
-0.0103237
5.01085e-05
-0.0284703
-0.010643
-0.000439171
-0.0248511
-0.0101109
-0.00166986
-0.0227451
-0.00914872
-0.00639189
-0.0177697
-0.0063128
0.00141202
-0.0458252
-0.021281
-0.000143626
-0.0283797
-0.010637
-0.00562621
-0.0224601
-0.00823374
0.00647943
-0.0528179
-0.0248459
0.00260048
-0.0283795
-0.00986955
-0.00129193
-0.0228067
-0.00949721
0.0104507
-0.0487005
-0.0240011
0.00206468
-0.0240425
-0.00582243
-0.00466373
-0.0184627
-0.00550216
-0.00369103
-0.0325636
-0.0137917
0.0014507
-0.0184786
-0.0413747
-0.000964319
-0.0421121
-0.0174198
0.00577497
0.0345376
-0.0362296
-0.00504899
0.0147238
0.00312276
-0.014451
0.00237828
0.0169286
0.00548254
0.00450192
0.00384973
0.00309482
3.70136e-05
0.00772422
-0.00178114
-0.000501321
0.00630097
-0.000313687
-0.00145073
0.000914611
-0.00339209
-0.00429986
-0.000156735
-0.0277823
0.0023171
-0.0120177
-0.012347
-0.0035268
-0.01075
0.00196461
-0.0232535
-0.0130173
0.00947111
-0.04577
0.0119368
0.0246352
-0.0140565
-0.0728617
0.0160931
0.0183619
-0.00736309
-0.000238764
0.0158463
-0.0410016
-0.047468
0.0136956
-0.0402982
-0.0489342
0.0752979
0.01559
0.0964023
-0.0412039
-0.0570924
0.0127278
-0.0596139
-0.0391075
0.101584
0.00766706
-0.0369936
-0.0547779
0.0968323
-0.0170833
0.0875721
-0.0342606
-0.0285611
-0.0172804
0.0485062
-0.0323441
-0.0159652
0.0140424
-0.0477659
-0.0689831
0.0854262
0.0152053
0.0831008
-0.0497206
-0.034543
-0.00840147
0.0764015
-0.0290116
-0.0237829
-0.00910629
0.0505291
-0.0308346
-0.0189899
-0.00814069
0.0717377
-0.0403313
-0.0323724
-0.00432384
0.0584226
-0.0374615
-0.0247783
0.0231487
0.0712565
-0.0402904
-0.0584388
0.000778956
0.0710088
-0.0272396
-0.0213999
0.000693778
0.0605887
-0.0347467
-0.0257579
0.00113331
0.062201
-0.0362304
-0.026411
0.00168372
0.0644238
-0.0374121
-0.0275631
0.00169365
0.0629738
-0.0368758
-0.0261087
0.00183339
0.064851
-0.0375156
-0.0274758
0.000671883
0.0614393
-0.0353561
-0.0249221
-0.0228254
0.0737325
-0.0288739
-0.0213616
0.00306088
0.07608
-0.0617234
-0.040243
0.00558708
0.0660589
-0.0268244
-0.0417607
0.00389569
0.0756001
-0.0314049
-0.0425037
0.00163205
0.0643465
-0.0374508
-0.024632
-0.0289835
0.0811615
-0.0291335
-0.0214124
-0.0353515
0.0813606
-0.0463787
-0.0286137
-0.00976929
0.0744064
-0.0385174
-0.0614712
-0.00744442
0.0684345
-0.0406716
-0.0300884
-0.0298309
0.0626355
-0.0230286
-0.017221
-0.0303703
0.0494922
-0.0305599
-0.0183944
-0.017654
0.0160676
-0.0237942
-0.00499147
0.011994
-0.0243732
0.00150063
-0.00678002
0.0277638
-0.036165
0.0213471
-0.000958884
0.027238
-0.0344167
0.0154423
0.0194932
0.0159858
0.0747585
-0.0463244
-0.0171871
-0.010415
0.098056
-0.0540753
-0.0175809
-0.0252576
0.0460024
-0.027361
-0.00380029
-0.0238098
-0.00473182
0.00158685
0.00169296
-0.0471466
-0.0250541
0.0240125
0.0243688
0.0108416
0.00501243
-0.0240369
0.0131866
-0.000305002
-0.0252932
0.0426768
-0.0131771
-0.0161099
-0.0098099
-0.00667097
-0.000137967
0.0201536
-0.0212344
0.00604863
0.0240987
-0.0157378
-0.0272389
0.017743
0.0273529
-0.0211919
0.00627678
-0.0241347
-0.0221016
0.0302292
0.0183177
-0.0141928
0.0091183
-0.0105513
-0.00679378
0.00733605
-0.007356
-0.00738586
-0.00474652
0.00408819
-0.00231513
-0.00382605
-0.00760617
-0.00235625
0.00254677
0.00266687
0.00468976
-0.00595167
-0.00204041
0.00363634
0.000732893
-0.00754178
-0.00193527
0.00478836
0.00264756
0.00485
-0.00551185
-0.00163019
0.00364894
0.000893615
-0.00698894
-0.0013714
0.00440436
0.00232604
0.00484472
-0.0048983
-0.00100772
0.00337931
0.00110193
-0.00699631
0.00319301
0.0013207
0.00147663
0.00294133
-0.00361597
0.00574679
0.00815178
-0.00499637
-0.00123163
0.0012064
0.00426197
0.00150813
-0.00683313
-0.00111036
0.00440476
0.00230662
0.00485549
-0.00413219
-0.000834975
0.00331622
0.00126367
0.0015265
0.0029079
0.00137746
-0.00791232
0.00548279
0.0019138
0.0020431
0.00340066
-0.00413114
0.00598275
0.00883353
-0.0052779
-0.000675356
0.00108344
0.00414323
0.00142951
-0.00711175
0.00324786
0.00187817
0.0013109
0.00251301
-0.00367846
0.0024533
0.00765858
-0.00462306
0.00281451
0.00916867
-0.00553458
0.00358845
0.0109367
-0.00651208
0.0043669
0.0121895
-0.00694739