/*--------------------------------*- C++ -*----------------------------------*\
  =========                 |
  \\      /  F ield         | OpenFOAM: The Open Source CFD Toolbox
   \\    /   O peration     | Website:  https://openfoam.org
    \\  /    A nd           | Version:  7
     \\/     M anipulation  |
\*---------------------------------------------------------------------------*/
FoamFile
{
    version     2.0;
    format      ascii;
    class       volVectorField;
    location    "19";
    object      U;
}
// * * * * * * * * * * * * * * * * * * * * * * * * * * * * * * * * * * * * * //

dimensions      [0 1 -1 0 0 0 0];

internalField   nonuniform List<vector> 
15142
(
(0.542576 0.387952 1.16888)
(0.306627 0.238235 1.15041)
(-0.133135 0.36224 0.662114)
(0.0138621 0.182677 0.765909)
(0.077948 0.0578043 0.767092)
(0.0840507 0.0370135 0.713737)
(0.0806715 0.0305863 0.577957)
(0.0573249 0.0393252 0.474048)
(-0.0847035 0.150855 0.245896)
(-0.272276 0.229919 -0.0687957)
(-0.31083 0.24411 -0.239481)
(-0.259026 0.262261 -0.085351)
(-0.0929824 0.203453 0.163039)
(-0.00583521 0.0829625 0.351547)
(0.0202966 0.0456492 0.372397)
(0.0294373 0.0254459 0.368279)
(0.0382622 0.0189729 0.377436)
(0.032369 0.0191331 0.363415)
(0.0327997 0.0203678 0.352557)
(0.0373334 0.0198538 0.375676)
(0.0328919 0.0214381 0.367034)
(0.033922 0.0223573 0.366816)
(0.0416708 0.0160666 0.397862)
(0.0408912 0.0100888 0.39603)
(0.0674318 -0.0217399 0.384963)
(0.131851 -0.124013 0.243807)
(0.14507 -0.302771 -0.00221051)
(0.0448018 -0.375119 -0.112116)
(-0.0769969 -0.646998 -0.173216)
(-0.138252 -1.03056 -0.327443)
(-0.258527 -1.16592 -0.297418)
(-0.373068 -1.31435 -0.310981)
(-0.526566 -1.52111 -0.337783)
(-0.627176 -1.53928 -0.280661)
(-0.760559 -1.54279 -0.201472)
(-1.00215 -1.835 -0.515787)
(-1.23768 -2.20256 -0.934845)
(-1.62035 -2.51314 -1.56787)
(-1.95233 -2.63436 -1.96327)
(-2.25229 -2.7747 -2.04305)
(-2.80151 -3.01924 -2.73599)
(-3.21346 -2.95314 -3.18774)
(-3.45329 -2.88935 -3.41913)
(-3.77829 -2.96059 -4.27672)
(-3.90546 -2.59169 -4.7915)
(-3.70972 -1.96685 -5.0398)
(-3.68104 -1.85483 -5.7883)
(-3.50365 -1.1291 -6.21284)
(-2.96964 -0.121064 -6.39949)
(-2.79018 0.294577 -6.70568)
(-1.72155 1.73321 -6.62694)
(-1.3358 1.87493 -6.74203)
(-0.245917 2.76621 -6.84449)
(0.255013 2.75002 -6.95344)
(0.779581 2.94469 -7.47302)
(0.195537 1.89106 -7.5281)
(-0.971856 1.85991 -6.09581)
(-0.755708 2.19178 -6.64331)
(-1.1426 1.76571 -7.0454)
(-2.07723 1.72602 -6.49272)
(-1.53717 2.00293 -6.46505)
(-1.45398 1.91294 -6.49606)
(-1.37382 2.4618 -6.28013)
(-0.576959 2.5762 -6.68609)
(-0.173791 2.3869 -6.55358)
(0.465961 2.88805 -6.31369)
(1.50891 2.9821 -6.29972)
(2.3205 2.84146 -5.8561)
(2.87518 2.81735 -5.73781)
(3.26112 2.26048 -5.04156)
(3.60226 1.5733 -4.46354)
(2.0787 0.628726 -4.72956)
(-2.47141 1.30567 -5.51639)
(-2.74401 2.22276 -5.51521)
(-2.46226 2.30615 -5.55197)
(-1.94006 2.37081 -5.97837)
(-1.78462 2.10919 -6.57774)
(-1.90604 2.35397 -6.72903)
(-0.867269 2.55205 -6.72848)
(0.06391 2.51644 -6.36859)
(-0.143833 2.48669 -7.76793)
(0.522358 2.73799 -7.13799)
(1.2661 2.41785 -6.65988)
(1.12236 1.8354 -7.17064)
(1.06183 2.22515 -7.35417)
(1.61234 1.99907 -7.01342)
(1.4543 1.56195 -7.55469)
(1.20709 1.78927 -7.50068)
(1.47698 1.46739 -7.45287)
(1.16297 1.82497 -7.61084)
(1.61111 1.26772 -7.43517)
(1.16824 1.73022 -7.42414)
(1.76973 1.26152 -7.61789)
(1.42045 1.60724 -7.41329)
(1.86213 1.2536 -7.5084)
(1.66841 1.38813 -7.54365)
(2.11737 1.51958 -7.21745)
(2.40762 0.879174 -7.57884)
(1.9985 0.766225 -7.72355)
(2.39785 1.10794 -6.94036)
(2.76181 0.361583 -7.25416)
(2.39612 -0.0684139 -7.37198)
(2.47744 -0.0289358 -6.56925)
(2.55372 -0.493177 -7.0602)
(1.85933 -0.310797 -7.12741)
(2.45152 0.198609 -6.20086)
(2.65197 -0.657456 -6.4781)
(2.38726 -0.851252 -6.02669)
(1.89092 -1.09923 -6.45832)
(0.604568 2.35715 -6.29685)
(1.21188 3.78033 -5.42943)
(1.86227 3.89389 -5.48286)
(2.59834 2.89777 -6.34766)
(3.25612 2.11613 -6.52174)
(3.21717 1.30008 -6.52295)
(3.13881 0.267212 -6.73255)
(2.49574 -0.627631 -7.11093)
(1.99802 -0.789531 -7.85026)
(1.81307 -1.35423 -7.77458)
(1.67236 -1.72647 -6.3878)
(1.44653 -1.5809 -6.81967)
(2.12946 -1.29961 -6.13837)
(2.29163 -1.50153 -5.99685)
(1.71943 -1.30063 -6.29365)
(2.24143 -1.08369 -6.21525)
(2.20304 -1.41374 -6.14138)
(1.70461 -1.40746 -6.74396)
(1.68562 -1.21609 -6.99426)
(1.38744 -0.966646 -7.39449)
(1.75196 -0.530901 -7.9731)
(1.29995 -0.806785 -7.72894)
(2.09663 -0.236692 -7.81822)
(1.60551 -0.986785 -7.43296)
(2.0123 -0.750629 -7.55736)
(2.01466 -1.18107 -7.38296)
(2.25836 -1.16702 -7.30093)
(2.29417 -1.60227 -6.56935)
(1.66596 -1.84738 -6.67064)
(1.41269 -1.80556 -6.77635)
(1.35008 -2.48884 -6.29238)
(0.4153 -2.82471 -6.70148)
(-0.227239 -2.85566 -6.62003)
(-1.06289 -3.09476 -6.23308)
(-1.98217 -3.22372 -6.25058)
(-2.79513 -2.9909 -5.88035)
(-3.37326 -2.81358 -5.22372)
(-3.57485 -2.55598 -4.50324)
(-3.65141 -2.30212 -3.57074)
(-3.82722 -2.11976 -3.35535)
(-3.65377 -1.44079 -3.13016)
(-0.965395 -0.499308 -3.14956)
(2.86789 -1.38865 -4.00909)
(2.14772 -3.0055 -5.90853)
(0.880434 -3.74549 -6.6326)
(-0.597319 -3.89751 -6.52139)
(-1.99858 -3.45969 -6.05643)
(-3.01806 -2.48617 -5.19822)
(-3.16376 -1.5497 -4.34786)
(-2.28483 -0.774541 -1.41282)
(-1.99659 0.0651875 -0.0270575)
(-1.37082 0.358726 0.14159)
(-0.623661 0.426618 0.550246)
(0.621585 0.123617 1.57142)
(0.449922 0.531697 1.63226)
(0.724526 0.0382739 2.75008)
(-0.369586 -2.10253 0.106423)
(-0.335748 -1.36641 0.620108)
(-0.997875 -2.42673 -3.67221)
(-1.02448 -3.38874 -4.82795)
(-0.770735 -4.51337 -6.1348)
(-0.65513 -4.54389 -5.84913)
(-0.469228 -4.15609 -4.80301)
(-0.0252519 -3.88966 -5.09668)
(0.443605 -2.93789 -4.52735)
(-0.105579 -1.50875 -2.65956)
(-2.00006 1.25874 -1.0429)
(-3.08575 0.18773 -0.626964)
(-3.09328 -0.741028 -0.725356)
(-1.20475 -0.204799 1.62535)
(-1.45154 -2.04064 -1.52568)
(-1.15397 -2.12448 -3.74176)
(-0.7782 -2.35652 -5.2643)
(-1.83801 -1.90858 -6.17661)
(-1.57003 -2.65982 -6.51249)
(0.123123 -3.39097 -6.06917)
(0.758266 -2.83537 -6.62372)
(-0.297861 -1.6567 -7.43315)
(0.0618821 -2.76836 -7.61454)
(1.74242 -3.42758 -6.80824)
(1.62848 -1.7971 -6.87373)
(1.10805 -0.78031 -6.83352)
(1.0468 -1.73781 -7.03254)
(2.36844 -2.40265 -7.04897)
(1.88498 -1.18592 -6.55583)
(1.55275 -0.502145 -6.69041)
(1.19059 -1.0256 -6.68334)
(2.10695 -1.7897 -6.50446)
(1.80888 -0.926343 -6.49084)
(1.41679 -0.968129 -6.26922)
(2.04739 -1.70198 -6.17452)
(1.70249 -0.692556 -6.42973)
(1.13371 -0.371767 -6.39981)
(2.01864 -1.61756 -6.21167)
(1.7602 -0.659275 -6.48281)
(1.03875 -0.502075 -6.53575)
(1.98064 -1.58017 -6.43539)
(1.64191 0.0761944 -6.67084)
(0.304311 -0.341425 -6.55109)
(0.916531 -1.16649 -6.35195)
(2.28712 -1.53332 -6.46594)
(1.43233 0.620647 -6.87666)
(0.140367 -0.0379816 -6.59255)
(0.501461 -1.0269 -6.46517)
(2.22288 -1.43503 -6.63681)
(1.05863 0.332786 -6.9629)
(-0.0408114 -0.478227 -6.79628)
(1.152 -1.03814 -6.64408)
(2.72437 -1.21171 -6.32649)
(2.30018 -0.429515 -6.71631)
(1.63457 -0.355623 -6.68574)
(1.8801 -0.633511 -6.49233)
(2.47997 -0.184611 -6.16393)
(2.53532 0.344991 -5.54768)
(2.58859 1.41884 -5.0614)
(1.92691 2.74147 -5.32897)
(1.23712 2.71104 -5.18348)
(1.10158 2.38966 -4.57896)
(-0.45401 2.18519 -4.71444)
(-0.883902 1.44262 -5.22655)
(-0.704458 -0.182359 -5.77088)
(0.0157092 0.434518 -4.98712)
(0.229384 1.29678 -4.46368)
(2.31501 1.17768 -4.06849)
(2.39872 0.214992 -2.03525)
(3.86264 0.984204 -3.71889)
(4.88536 -0.427228 -4.81509)
(4.52575 -0.858062 -5.80743)
(3.69444 -1.24441 -6.09092)
(4.43606 -1.44379 -5.30738)
(3.90254 -1.53281 -5.74445)
(2.93434 -1.51068 -6.05469)
(3.34742 -1.8077 -5.18858)
(2.88693 -1.71828 -5.8768)
(2.86148 -1.67169 -6.16743)
(3.14123 -2.07345 -5.15719)
(2.93197 -2.01712 -5.80259)
(2.7607 -1.53737 -6.07904)
(2.94525 -2.2851 -5.87332)
(2.32419 -1.69287 -6.08025)
(3.12512 -2.59502 -6.03074)
(2.38762 -1.9591 -6.21339)
(3.129 -2.86375 -6.20804)
(2.54563 -2.02098 -6.46911)
(3.09703 -2.9745 -6.38243)
(2.51632 -2.40869 -6.75973)
(2.93022 -3.23829 -6.55861)
(3.37316 -3.92822 -5.24969)
(3.48594 -4.28513 -3.97011)
(3.42259 -3.69752 -4.93718)
(3.6752 -4.00553 -3.54877)
(3.59611 -3.47954 -4.74283)
(3.69096 -3.57418 -3.24044)
(3.57224 -2.99099 -4.65894)
(3.79744 -3.07172 -3.10855)
(3.5564 -2.66898 -4.72393)
(3.78221 -2.49275 -3.35956)
(3.93668 -1.99693 -1.65327)
(3.66573 -2.77543 -2.07036)
(3.58914 -3.39304 -1.38602)
(3.58328 -3.86872 -2.50505)
(3.64112 -4.52092 -2.6406)
(3.45507 -4.52593 -3.48032)
(3.47087 -4.44997 -4.3402)
(3.12639 -4.05302 -5.43288)
(2.63184 -3.4288 -6.68855)
(2.80965 -4.26667 -5.6766)
(3.24746 -4.65493 -4.6134)
(3.50684 -4.93185 -3.71623)
(3.30249 -4.80185 -4.13321)
(2.93089 -4.59461 -4.82272)
(2.0309 -4.15236 -5.85256)
(2.11288 -4.42098 -4.93684)
(3.01598 -4.76406 -4.18078)
(3.36157 -5.01292 -3.77041)
(3.45146 -5.08455 -3.48913)
(3.25343 -4.86671 -3.3528)
(2.81871 -4.5646 -3.28547)
(1.95242 -4.13732 -3.72791)
(0.617257 -3.58496 -4.60449)
(0.526581 -3.30723 -2.55763)
(1.33056 -3.66012 -1.61442)
(1.90943 -3.89809 -0.924884)
(0.579727 -3.22814 0.0154537)
(-0.493676 -2.88954 -0.103225)
(-0.603589 0.475878 4.00405)
(-0.634186 0.405756 5.57035)
(-0.40136 0.477579 5.50183)
(-0.0747099 0.840912 4.54369)
(0.295012 1.01907 2.88023)
(-0.2897 1.02474 0.994741)
(-0.571901 -3.25568 -3.59759)
(-0.857764 -4.06191 -4.42438)
(-0.938839 -4.63266 -4.86474)
(-0.907236 -4.9031 -5.20431)
(-0.949075 -4.8501 -5.17299)
(-0.895826 -4.70263 -5.01494)
(-0.678889 -4.99057 -5.90383)
(-0.592591 -5.05955 -6.09458)
(-0.401256 -4.95766 -6.43033)
(-0.449355 -4.9621 -6.32777)
(-0.525639 -4.87753 -6.26682)
(-0.433466 -4.17927 -5.01189)
(-0.291537 -4.62791 -5.53573)
(-0.275269 -4.78383 -5.71084)
(0.149136 -4.10933 -4.34316)
(1.13286 -2.00309 -1.10127)
(1.04434 -1.3556 0.752397)
(0.812474 -0.701292 2.33686)
(0.342592 -0.679314 3.27534)
(0.632469 0.0354032 2.69187)
(0.395478 0.186474 2.93152)
(0.461819 0.115894 3.0018)
(0.368889 0.153707 2.50706)
(0.666085 0.160257 1.97828)
(0.625055 0.0704282 1.75681)
(0.527727 0.125788 1.74903)
(1.02633 0.154367 1.69622)
(1.45786 0.202367 1.34953)
(1.23936 0.156462 0.862956)
(0.776604 0.432259 0.825918)
(0.458993 0.24935 0.697319)
(0.235567 0.112312 0.74965)
(0.177255 0.0921799 0.812103)
(0.15861 0.0560888 0.693586)
(0.127818 0.0357517 0.488862)
(0.000112746 0.150243 0.263617)
(-0.249595 0.259741 -0.168614)
(-0.327363 0.197861 -0.256282)
(-0.281416 0.197749 -0.315224)
(-0.19986 0.18383 -0.0621742)
(-0.0250201 0.127407 0.278898)
(0.0531897 0.0526672 0.421926)
(0.0575713 0.0396842 0.387392)
(0.061018 0.0294143 0.36841)
(0.0691193 0.0266701 0.366486)
(0.0576982 0.0312505 0.348934)
(0.0579577 0.0354074 0.338049)
(0.0649839 0.0339523 0.362503)
(0.0567492 0.0381269 0.352124)
(0.0570193 0.041978 0.353842)
(0.0661657 0.0395876 0.387872)
(0.0588136 0.050343 0.400356)
(0.0731901 0.0470356 0.429232)
(0.0825361 0.0265902 0.32457)
(-0.0238321 0.0627336 0.0605917)
(-0.139521 0.196643 -0.028975)
(-0.233555 0.150416 -0.15477)
(-0.143041 0.01156 -0.102894)
(-0.147413 -0.255874 0.0452496)
(-0.123846 -0.315549 0.0485608)
(-0.176175 -0.525517 0.180406)
(-0.301253 -0.556965 0.291173)
(-0.358441 -0.186917 0.39566)
(-0.225466 -0.0137797 0.380047)
(-0.4473 -0.736825 0.133599)
(-0.885352 -1.37464 -0.349551)
(-1.16317 -1.7541 -0.824167)
(-1.53144 -2.03847 -1.10905)
(-2.21742 -2.69068 -1.33809)
(-2.80021 -2.83926 -1.63095)
(-3.17361 -2.87294 -1.83857)
(-3.75277 -3.08792 -2.58639)
(-4.1068 -2.81859 -3.13685)
(-3.84513 -2.09373 -3.47597)
(-3.77839 -1.83838 -4.12785)
(-3.8138 -1.34841 -4.43696)
(-3.1356 -0.103342 -4.88096)
(-2.96373 0.191858 -5.08084)
(-1.80535 1.72625 -5.02204)
(-1.39604 1.93611 -5.18461)
(-0.207819 2.92652 -5.31127)
(0.219896 2.87699 -5.50986)
(0.661576 3.18182 -5.71187)
(-0.125101 2.01258 -5.71901)
(-1.15158 1.89943 -4.91995)
(-0.846179 2.25792 -5.56756)
(-1.11015 1.79409 -5.90045)
(-2.0846 1.84252 -5.33014)
(-1.58318 2.12698 -5.25188)
(-1.57787 2.0156 -5.26028)
(-1.44585 2.6263 -5.1435)
(-0.607588 2.73748 -5.40702)
(-0.292974 2.49998 -5.4351)
(0.411554 3.02525 -5.19448)
(1.39634 3.1927 -5.13983)
(2.43924 3.04384 -4.61082)
(3.09128 2.9987 -4.58849)
(3.38052 2.21544 -3.43407)
(3.98162 1.25119 -3.36909)
(1.00131 0.11156 -3.20844)
(-2.48769 1.07973 -3.38659)
(-2.95515 2.2994 -4.42747)
(-2.62074 2.43265 -4.40654)
(-1.83365 2.55661 -4.87975)
(-1.93744 2.30644 -5.4945)
(-2.13506 2.47653 -5.76894)
(-1.01265 2.61249 -5.61251)
(0.0959718 2.60286 -5.31943)
(-0.106091 2.48542 -6.62874)
(0.498691 2.88065 -5.901)
(1.35379 2.52474 -5.28976)
(1.32266 1.95884 -5.61352)
(1.20887 2.36184 -5.55289)
(1.74115 2.12479 -5.54237)
(1.61488 1.69678 -5.80795)
(1.35824 1.9369 -5.80043)
(1.56084 1.64576 -5.76547)
(1.24678 1.95463 -5.96367)
(1.65165 1.38569 -5.79739)
(1.2805 1.77547 -5.79156)
(1.89 1.36038 -5.97971)
(1.59432 1.70514 -5.75239)
(1.99263 1.44581 -5.84879)
(1.80669 1.58526 -5.88251)
(2.23052 1.70301 -5.73084)
(2.55064 1.05023 -5.9298)
(2.13885 0.99898 -6.1381)
(2.57386 1.30059 -5.59547)
(3.01165 0.418643 -5.90953)
(2.57895 0.0672421 -6.20687)
(2.68561 0.119226 -5.50287)
(2.80205 -0.577506 -6.11016)
(1.79558 -0.119992 -6.20266)
(2.51342 0.480311 -5.36277)
(2.85674 -0.434966 -5.50407)
(2.57578 -0.778708 -4.94936)
(1.82312 -1.15972 -5.25531)
(0.410653 1.35198 -4.95511)
(0.95261 3.86848 -4.57691)
(1.84114 4.28696 -4.50421)
(2.73381 2.96805 -4.73379)
(3.41615 2.13283 -5.22332)
(3.40215 1.31659 -5.07072)
(3.25528 0.0857673 -5.45401)
(2.66774 -0.739288 -5.78094)
(2.28808 -0.846394 -6.40447)
(2.08541 -1.36164 -6.738)
(1.72634 -1.774 -5.66152)
(1.39517 -1.63003 -5.94178)
(2.25645 -1.19715 -5.33802)
(2.47462 -1.57235 -4.85865)
(1.74884 -1.42106 -5.27755)
(2.40921 -1.04713 -5.10657)
(2.42181 -1.40989 -5.00842)
(1.82388 -1.49684 -5.50756)
(1.91402 -1.35633 -5.54988)
(1.59588 -1.14298 -5.61567)
(1.9409 -0.690071 -6.29639)
(1.29429 -1.06858 -6.11884)
(2.20377 -0.440496 -6.1105)
(1.52194 -1.30011 -5.7662)
(1.95856 -1.15302 -5.4375)
(2.02777 -1.48269 -5.50122)
(2.262 -1.37781 -5.50524)
(2.26993 -1.77303 -5.11837)
(1.68663 -1.96815 -5.10767)
(1.55078 -1.86846 -5.17435)
(1.43547 -2.5613 -4.9993)
(0.390142 -2.90834 -5.21814)
(-0.0774012 -2.92106 -5.23302)
(-1.26142 -3.32903 -5.01758)
(-2.33952 -3.49146 -4.8231)
(-3.16121 -3.13597 -4.47259)
(-3.81993 -2.80032 -3.69297)
(-3.80359 -2.48574 -2.85718)
(-3.79616 -2.10105 -1.73448)
(-3.95549 -1.86024 -1.59809)
(-3.27342 -0.72604 -0.771349)
(0.244335 0.0167125 -0.656702)
(4.09118 -0.938211 -0.994527)
(3.31031 -2.35448 -2.0136)
(1.51254 -3.48685 -3.4499)
(-0.519298 -3.4973 -4.24607)
(-2.69068 -2.76046 -3.46023)
(-3.75162 -1.58386 -1.97611)
(-4.04682 -0.652235 -1.02453)
(-2.9794 0.0290505 0.267298)
(-2.06398 0.43734 0.675938)
(-1.5525 0.616404 0.625277)
(-0.827963 0.590931 0.834609)
(-0.113504 0.485294 0.826666)
(0.0877258 0.247703 0.818138)
(0.234859 0.294442 0.788226)
(0.292977 0.460675 0.896388)
(-0.575546 0.662187 0.887133)
(0.297637 0.375204 0.89827)
(1.06533 0.00418945 1.22486)
(1.9036 -0.110865 1.11035)
(2.39245 0.235845 1.03414)
(1.74137 0.324837 0.893209)
(1.34856 0.36056 0.798152)
(1.06836 0.380331 0.786992)
(0.552322 0.280535 0.575042)
(0.215654 0.126298 0.377053)
(-0.112135 -0.0405675 -0.10583)
(-0.200562 0.110798 -0.107627)
(-0.260786 0.0956215 -0.242897)
(-0.186277 -0.0424198 -0.172545)
(-0.0299862 -0.119227 -0.181646)
(0.0149493 -0.0607168 0.0649392)
(0.109471 -0.0648176 0.280079)
(0.104648 -0.0272319 0.366253)
(0.119568 0.0308658 0.358829)
(0.0923947 0.0361136 0.337756)
(0.103232 0.0319098 0.321686)
(0.0891285 0.0450189 0.309858)
(0.0889407 0.0555903 0.302573)
(0.0962377 0.046448 0.31955)
(0.0896261 0.0556869 0.313648)
(0.087276 0.0640146 0.319035)
(0.0917841 0.0628148 0.341656)
(0.0774305 0.0844687 0.359811)
(0.0783669 0.115507 0.388498)
(0.0139192 0.174638 0.231895)
(-0.199021 0.244351 -0.0897359)
(-0.225121 0.140389 -0.182244)
(-0.0976012 0.0209058 0.0622375)
(-0.0393096 -0.0128791 0.254138)
(-0.105694 0.10877 0.198116)
(-0.202577 0.26112 0.0186708)
(-0.082021 0.35193 -0.12738)
(0.0863946 0.159444 0.0557034)
(-0.0476173 -0.379911 0.14749)
(-0.149275 0.473918 0.120037)
(-0.203333 0.525898 -0.0797959)
(-0.153983 0.778564 0.0537195)
(0.00852199 1.16207 0.0789408)
(0.0693912 1.23064 0.048934)
(0.74069 0.625579 -0.241668)
(-0.5051 -1.13861 -0.819995)
(-1.32634 -2.00961 -0.752373)
(-1.97367 -2.39376 -0.963177)
(-2.46971 -2.45541 -1.07585)
(-3.21961 -2.68421 -1.56296)
(-4.12363 -2.79516 -2.32135)
(-3.89033 -1.80163 -2.54916)
(-3.75095 -1.15676 -3.12669)
(-4.06337 -1.17237 -3.50596)
(-3.29006 0.351837 -3.90255)
(-3.20097 0.418148 -4.01964)
(-1.99042 1.94684 -3.885)
(-1.6967 2.17185 -3.93426)
(-0.428297 3.14031 -4.27815)
(-0.273117 3.11967 -4.40907)
(0.253012 3.17635 -4.66327)
(-0.549068 2.23777 -4.43424)
(-1.44681 2.17248 -3.97855)
(-0.928923 2.28722 -4.66384)
(-1.06134 2.03424 -3.80581)
(-1.2029 1.83348 -4.81572)
(-2.12291 2.19161 -4.2993)
(-1.76045 2.49734 -4.16214)
(-1.85342 2.40534 -4.15677)
(-1.67984 3.01283 -4.09338)
(-0.71508 2.99305 -4.42556)
(-0.640215 2.85289 -4.41216)
(0.0336889 3.36706 -4.227)
(0.771269 3.70093 -3.86471)
(1.96142 3.44293 -3.46088)
(2.95996 2.96534 -2.30955)
(3.15413 2.62628 -2.61274)
(3.71248 2.40198 -2.44314)
(3.88652 1.10876 -2.50786)
(-0.242263 0.00764155 -2.23078)
(-2.56752 1.39381 -2.40711)
(-2.22123 1.92454 -2.34633)
(-2.21679 1.66831 -2.79278)
(-2.29612 1.1972 -2.982)
(-1.70848 0.241189 -3.38902)
(-1.2373 0.721762 -3.01395)
(-1.73949 0.580227 -3.29615)
(-2.0318 0.641114 -4.16353)
(-2.08369 -0.66382 -4.38396)
(0.172143 -1.4192 -3.71758)
(-0.391345 -1.41967 -3.11127)
(-0.420153 -1.28302 -1.73076)
(-0.238213 -1.62249 0.405703)
(-0.228057 -0.304008 1.99569)
(0.142645 -0.869528 3.38751)
(0.412468 -1.01963 4.40384)
(0.475704 -0.657359 5.28146)
(-0.731366 -0.154623 6.85684)
(0.0244977 -0.107339 7.18305)
(-0.151085 0.0137444 7.46444)
(-0.125993 0.171461 7.92962)
(0.31809 0.394374 6.9408)
(-0.12317 -0.192587 5.79323)
(-0.357142 -0.25386 6.81929)
(0.348118 0.0254 6.46398)
(-0.160491 0.166466 6.24332)
(2.65393 -4.42178 -1.32549)
(2.61774 -4.68126 -1.21789)
(3.35783 -5.07471 -3.41718)
(3.5844 -5.08539 -2.96865)
(3.18104 -4.80948 -1.8025)
(3.22781 -4.2125 -0.634598)
(1.14072 -1.5818 1.65827)
(2.12272 -1.59703 1.17876)
(1.64231 -1.11672 1.88448)
(4.78189 -1.71206 -1.18648)
(4.72485 -1.77637 -2.80514)
(3.90488 -1.94975 -3.32765)
(3.72004 -2.10858 -4.11611)
(5.00791 -2.76754 -2.99636)
(5.33842 -2.77752 -2.71414)
(5.87136 -3.06677 -2.5455)
(6.03127 -3.09407 -3.05567)
(6.26063 -3.40946 -3.15509)
(6.26384 -3.74336 -3.01809)
(6.12401 -3.99398 -2.97643)
(5.71637 -4.58459 -2.84205)
(5.65097 -4.6609 -2.86322)
(5.03801 -5.16121 -2.78734)
(4.98884 -5.2345 -2.77562)
(4.48371 -5.64527 -2.7863)
(4.29392 -5.62315 -2.78053)
(3.94665 -5.74019 -2.97322)
(3.81165 -5.72165 -3.02723)
(3.78524 -5.63108 -3.15423)
(3.74601 -5.57505 -3.21908)
(3.67867 -5.38831 -3.5907)
(4.03218 -5.07841 -3.43266)
(4.23521 -5.05331 -3.39403)
(4.2977 -4.95369 -3.55755)
(4.71048 -4.48878 -2.95348)
(4.86188 -4.45957 -2.75392)
(4.66697 -4.2905 -2.43931)
(3.9455 -3.59065 -1.29797)
(-2.21388 0.298365 1.38015)
(-4.65785 -2.35012 -1.62936)
(-3.29615 -4.85669 -3.81186)
(-0.95741 -5.09938 -4.18055)
(2.77423 -4.72466 -4.02926)
(4.76598 -1.11147 1.00115)
(3.71114 -0.300258 1.18067)
(3.67794 0.291466 1.0997)
(2.86696 0.407688 1.16478)
(1.99696 0.448766 0.959522)
(1.34705 0.45483 0.747279)
(0.928671 0.373186 0.615692)
(0.744572 0.303687 0.591127)
(0.355493 0.13144 0.404249)
(0.135578 -0.020827 0.331173)
(-0.0449342 -0.178784 0.0867572)
(0.169101 -0.0800138 0.281823)
(0.0363326 -0.195197 0.0356237)
(0.305437 -0.0325934 0.283238)
(0.172026 -0.0583196 0.243531)
(0.264071 0.0707119 0.335653)
(0.171981 0.04285 0.3125)
(0.179187 0.0793906 0.293917)
(0.279429 0.137787 0.317407)
(0.148368 0.0667167 0.27403)
(0.206477 0.0955187 0.28338)
(0.291424 0.143928 0.317395)
(0.144257 0.0755727 0.284924)
(0.177928 0.100783 0.305768)
(0.260131 0.150802 0.337217)
(0.118379 0.128006 0.329025)
(0.0729963 0.21317 0.257034)
(-0.00443848 0.192024 0.228814)
(0.0295828 0.12356 0.318724)
(0.07485 0.106051 0.356628)
(0.1188 0.265552 0.375357)
(-0.0570395 0.228007 0.135527)
(-0.072908 0.330334 -0.0910804)
(0.0712509 0.212603 0.353552)
(0.00899018 0.300309 0.327089)
(0.137213 0.5055 0.584435)
(0.10779 0.666981 0.603903)
(-0.11031 0.991794 0.168459)
(0.0199973 1.00506 -0.00331701)
(0.173141 1.20494 0.771915)
(0.295492 2.11021 0.568573)
(-1.08648 -0.565333 -0.437928)
(1.68286 2.21017 0.823183)
(-1.45038 -1.53927 -0.398834)
(-2.38086 -1.84014 -0.439192)
(-2.70327 -0.467041 -1.25363)
(-3.86975 -0.973959 -1.8406)
(-3.65768 0.00107486 -2.22063)
(-3.49683 1.32849 -2.44322)
(-3.29573 1.48499 -2.88654)
(-3.1857 3.10319 -2.91568)
(-2.45512 2.76741 -2.86328)
(-2.62887 3.62467 -2.93897)
(-1.51408 3.30918 -3.17541)
(-1.62507 3.32045 -2.87302)
(-1.16237 2.95171 -3.31143)
(-2.02511 3.07654 -3.05331)
(-2.5245 3.42678 -2.88039)
(-1.61776 2.64536 -3.42762)
(-2.23143 3.39501 -3.18895)
(-2.7524 4.02074 -2.94172)
(-2.34809 3.40097 -3.19625)
(-2.08702 4.05227 -3.09922)
(-2.05389 4.48812 -2.88759)
(-1.38111 3.79926 -3.26697)
(-0.948937 4.21975 -3.12278)
(-0.564173 4.50926 -2.87641)
(0.378285 4.25315 -2.51939)
(0.976018 3.75506 -2.00699)
(1.09309 0.893656 -0.901177)
(3.2176 0.350856 -1.18345)
(-0.681184 -0.541919 -0.547624)
(-0.948344 0.656956 -1.1965)
(-0.192348 2.9324 -1.88169)
(-0.360275 3.53334 -2.4139)
(-2.14857 2.75402 -3.40582)
(-1.39961 3.02821 -3.76187)
(-1.98336 2.75577 -4.45735)
(-1.56677 2.40226 -4.0889)
(-1.98924 2.43553 -4.89699)
(-1.27336 2.7563 -4.64326)
(0.168501 2.93621 -4.05257)
(0.841142 2.75167 -4.62916)
(0.398435 2.62683 -5.42478)
(0.621542 3.10628 -4.76491)
(1.71252 2.81327 -4.04656)
(1.73698 2.3079 -4.2198)
(1.50492 2.60229 -4.25854)
(2.10777 2.4773 -4.30055)
(1.9452 2.01603 -4.54001)
(1.6901 2.20907 -4.63338)
(1.85464 2.01011 -4.50106)
(1.5493 2.23062 -4.62769)
(1.86088 1.71563 -4.31117)
(1.59968 1.98544 -4.31808)
(2.15228 1.68506 -4.63202)
(1.93302 2.0101 -4.50768)
(2.23369 1.82914 -4.68886)
(2.10477 2.00646 -4.61503)
(2.58147 2.19428 -4.44152)
(2.81552 1.57764 -4.49721)
(2.58621 1.77787 -4.49023)
(3.03216 2.00349 -4.1062)
(3.29787 1.04586 -4.54568)
(3.04365 1.15351 -4.56574)
(3.23187 1.01513 -4.15937)
(3.029 0.0520312 -4.85211)
(2.40654 0.826286 -4.792)
(3.01937 1.26108 -4.22342)
(3.48623 0.54641 -3.93952)
(3.11579 -0.17481 -3.67127)
(1.5127 -0.488199 -3.05897)
(-0.367954 0.434089 -3.83773)
(0.989475 -0.248795 -4.23226)
(0.58905 -0.164179 -4.47438)
(-0.22484 -0.0636081 -4.94092)
(-0.375677 0.132094 -4.71783)
(-0.590864 0.293371 -4.82658)
(-0.49934 -0.169949 -4.86552)
(-0.286101 -0.424031 -4.68641)
(-0.489275 0.633986 -4.75997)
(-0.486088 2.25825 -4.38163)
(-0.119569 2.27161 -3.61043)
(1.35634 2.49656 -1.63855)
(2.40099 1.28174 -1.66632)
(4.07211 1.12375 -1.54724)
(5.16504 1.19395 -1.37415)
(5.2441 -1.17852 -1.56365)
(6.04219 -1.91062 -2.56913)
(6.29193 -1.92737 -3.08023)
(6.24026 -1.77264 -3.16057)
(5.85999 -1.73331 -3.05169)
(5.7742 -1.76572 -2.91511)
(6.15514 -2.0322 -2.94459)
(5.57583 -2.25532 -2.76956)
(4.91583 -2.53871 -2.65019)
(4.91832 -2.60934 -2.62464)
(5.08109 -3.25454 -2.74459)
(5.01282 -3.2364 -2.68297)
(4.9673 -3.80537 -2.77418)
(4.45636 -3.79099 -2.73228)
(4.35653 -3.81263 -2.69746)
(4.18201 -4.24216 -2.76715)
(4.20349 -4.25944 -2.77079)
(4.00734 -4.49906 -2.83597)
(3.97987 -4.4863 -2.84773)
(3.7776 -4.63792 -2.92008)
(3.76167 -4.69393 -2.98087)
(3.8814 -5.21733 -3.05315)
(3.79063 -5.14562 -3.09346)
(3.79111 -5.16507 -3.11414)
(3.7744 -4.9886 -3.12262)
(3.78084 -4.93041 -3.14158)
(4.10856 -5.06214 -3.11103)
(4.45332 -4.91095 -2.9705)
(4.2833 -3.99641 -2.40698)
(3.82629 -3.8456 -2.41295)
(3.82959 -3.06801 -1.86572)
(3.1505 -1.31958 -1.13576)
(0.167083 0.793411 1.17954)
(-2.67133 1.66447 1.51019)
(-2.74441 2.13488 0.849386)
(-2.74191 -4.1038 -3.18945)
(-1.16252 -5.03156 -4.00796)
(2.67525 -2.35205 -2.20982)
(2.81128 0.0151571 0.320876)
(3.64164 0.0269379 1.23897)
(3.21684 -0.25405 1.36976)
(3.23299 0.191519 1.1832)
(3.62203 0.287235 1.10449)
(2.67835 0.325487 1.0016)
(1.89075 0.346071 0.862134)
(2.01781 0.335402 1.19125)
(1.90281 0.379248 1.38986)
(1.92326 0.512252 1.69212)
(2.02598 0.619111 1.15988)
(1.46145 0.585374 0.827587)
(1.07602 0.435578 0.650654)
(0.769371 0.290052 0.52172)
(0.552243 0.154653 0.423307)
(0.380354 0.0733731 0.419935)
(0.587541 0.204943 0.425239)
(0.541371 0.1954 0.398951)
(0.405656 0.100219 0.387292)
(0.563324 0.22485 0.399288)
(0.48924 0.212113 0.382481)
(0.374849 0.129126 0.377778)
(0.506452 0.229464 0.378522)
(0.443314 0.235748 0.352035)
(0.335111 0.150157 0.336731)
(0.406839 0.20265 0.388268)
(0.545042 0.282238 0.390947)
(0.459854 0.231988 0.369028)
(0.345522 0.16355 0.348779)
(0.482254 0.240236 0.348989)
(0.39674 0.209921 0.331854)
(0.488843 0.245985 0.371189)
(0.348053 0.177899 0.356681)
(0.416988 0.19926 0.403898)
(0.561989 0.261063 0.403278)
(0.413903 0.275487 0.354432)
(0.294357 0.211152 0.332793)
(0.282843 0.201635 0.335808)
(0.328339 0.195551 0.384842)
(0.398768 0.212193 0.447174)
(0.462365 0.298691 0.478616)
(0.466027 0.316343 0.474025)
(0.537363 0.371891 0.571643)
(0.635515 0.524381 0.719911)
(0.644283 0.707412 0.790722)
(0.587827 1.05384 0.828701)
(0.913081 1.09534 0.779507)
(1.57499 1.24453 0.99686)
(1.15399 1.16533 1.19754)
(1.00628 1.3023 1.1828)
(1.62622 1.81477 1.04234)
(2.23399 2.27684 1.06055)
(2.75017 3.07294 0.588174)
(0.261367 0.345029 0.260207)
(2.04021 3.0029 0.22138)
(0.857785 4.62447 -0.938224)
(-2.33924 3.59178 -2.5101)
(-3.12651 2.04034 -2.51795)
(-2.6456 5.04928 -2.95207)
(-2.7805 5.21474 -3.02832)
(-3.43949 4.07328 -3.06723)
(-3.68053 4.9343 -3.1946)
(-3.72389 4.96892 -3.184)
(-3.62063 4.34185 -3.12125)
(-4.09221 4.53342 -3.05589)
(-4.09141 4.52282 -3.04979)
(-3.37615 4.04047 -2.93262)
(-4.00597 4.22651 -2.75684)
(-3.86053 4.23473 -2.73723)
(-2.88926 3.78097 -2.8097)
(-3.45833 4.41333 -2.72334)
(-3.62696 4.9012 -2.63687)
(-3.6423 4.89516 -2.66695)
(-3.06391 4.48848 -2.87267)
(-3.15103 4.93876 -2.72962)
(-3.06559 4.96436 -2.81802)
(-2.93444 5.42344 -2.73081)
(-2.62656 4.84659 -2.89931)
(-2.65505 5.32898 -2.83362)
(-2.72442 5.57424 -2.74233)
(-2.67437 5.50166 -2.75764)
(-2.07291 4.91221 -2.82182)
(-1.87385 5.0254 -2.70113)
(-1.53308 4.8381 -2.52788)
(-1.09975 4.46701 -1.88722)
(-0.368645 1.66344 -0.67851)
(0.357493 2.23575 -0.981269)
(1.58331 3.82886 -1.76349)
(1.89524 4.123 -2.22679)
(2.10416 4.23159 -2.49042)
(-0.143438 3.68335 -2.81834)
(-0.670333 3.55664 -3.10148)
(-0.933074 2.75129 -3.03321)
(1.1638 3.53896 -2.72834)
(1.95916 4.12877 -2.72358)
(3.49827 4.62602 -2.57417)
(3.80039 4.69618 -2.54374)
(4.18541 4.99958 -2.81891)
(3.3395 4.62202 -2.81961)
(2.92579 4.49066 -3.05066)
(1.00473 3.85949 -2.90591)
(1.39477 3.4551 -3.61186)
(2.9172 4.01106 -3.13174)
(2.54488 3.58833 -3.11353)
(2.38876 3.20734 -3.1841)
(3.09827 3.70049 -3.06557)
(3.65678 4.34143 -3.05201)
(3.98574 4.61451 -2.93309)
(4.21345 4.75808 -2.98256)
(4.21972 4.76162 -2.95476)
(4.35461 4.80056 -2.99861)
(3.88627 4.37803 -3.02427)
(3.46949 3.81614 -3.00574)
(2.75177 3.29357 -3.1997)
(2.50934 2.79055 -3.41285)
(2.84448 3.10645 -2.97142)
(2.5147 2.68808 -3.20361)
(3.03317 3.11451 -2.85406)
(3.71248 3.88961 -2.94972)
(4.15852 4.43099 -2.96111)
(4.24524 4.4734 -2.97434)
(4.22933 4.47445 -2.96074)
(4.3213 4.44116 -2.97321)
(3.77753 3.94272 -2.96059)
(2.95039 3.1715 -2.85056)
(2.53169 2.65815 -2.89622)
(1.55348 1.65931 -4.78811)
(2.3725 2.54954 -4.45597)
(1.54758 1.81363 -4.99673)
(1.3949 1.70146 -5.13804)
(1.51313 1.67367 -5.87431)
(1.4059 1.85682 -5.81125)
(1.17051 1.69682 -5.93294)
(1.00729 1.65077 -7.18455)
(1.33436 1.18821 -7.19119)
(1.86185 2.18387 -7.09411)
(2.45985 2.72452 -6.69271)
(3.16101 3.39946 -6.24362)
(3.79588 3.9336 -5.55226)
(4.22307 4.36918 -4.73562)
(4.7081 4.72725 -3.97119)
(4.9727 4.84081 -3.46408)
(4.88511 4.73702 -2.81095)
(2.58507 3.20685 0.955856)
(-0.484991 0.131215 4.06885)
(-0.809004 0.467718 4.23072)
(1.03385 -0.0383299 2.72069)
(5.45095 -1.80996 -1.577)
(5.58572 -1.48703 -3.12827)
(4.92896 -1.5671 -2.62669)
(5.0226 -1.61905 -3.95897)
(4.4294 -1.79461 -4.52583)
(5.3241 -2.00008 -3.55301)
(5.8169 -2.08454 -3.05715)
(6.38687 -2.18138 -2.84654)
(6.5615 -2.11538 -3.18059)
(6.82199 -2.32138 -3.25707)
(6.9169 -2.5249 -3.08404)
(6.80457 -2.6975 -3.06815)
(6.51963 -3.13578 -2.85093)
(5.78894 -2.92909 -3.09321)
(5.14265 -2.98836 -3.40741)
(5.18856 -3.33566 -3.96026)
(5.08847 -3.40069 -3.88158)
(4.77033 -3.99226 -4.16527)
(4.42418 -4.24894 -3.82521)
(4.26934 -4.46149 -3.79504)
(4.03522 -4.85441 -4.02509)
(3.91748 -5.02477 -4.04517)
(4.06381 -5.22941 -4.4463)
(3.91721 -5.54031 -4.50351)
(3.93453 -5.59932 -4.52238)
(3.88188 -5.69513 -4.43863)
(3.91382 -5.70459 -4.42858)
(4.00218 -5.63037 -4.3737)
(4.03754 -5.52833 -4.14788)
(3.93331 -5.27587 -3.71036)
(3.90748 -5.12347 -3.35753)
(3.21707 -5.02265 -2.91568)
(0.470611 -4.79163 -2.15335)
(-3.20691 -5.36814 -2.67995)
(-2.98664 -5.40238 -4.46367)
(-0.555707 -5.33629 -4.87065)
(0.103614 -5.27103 -4.93958)
(1.2157 -4.96406 -4.88034)
(4.39122 0.282538 1.66596)
(3.22236 0.864691 1.77995)
(3.03433 0.839121 1.53136)
(2.22611 0.866101 1.31957)
(1.82074 0.822599 1.08575)
(1.61123 0.728918 1.00339)
(1.25899 0.591021 0.795157)
(0.946877 0.474391 0.645915)
(0.71071 0.320902 0.494891)
(0.873265 0.464812 0.589753)
(0.658036 0.314513 0.462585)
(0.800405 0.439708 0.559008)
(0.595182 0.318151 0.422172)
(0.714624 0.3946 0.495876)
(0.549572 0.27486 0.402559)
(0.631302 0.364606 0.585411)
(0.748898 0.42472 0.700012)
(0.892248 0.469781 0.59015)
(0.632526 0.337537 0.453779)
(0.767395 0.404063 0.516341)
(0.571026 0.283912 0.391481)
(0.678958 0.331992 0.452911)
(0.780119 0.352842 0.519017)
(0.577211 0.251619 0.420578)
(0.691383 0.325297 0.613159)
(0.798764 0.357799 0.709174)
(0.9504 0.383517 0.600031)
(0.643359 0.30327 0.446169)
(0.69738 0.323944 0.471703)
(0.46332 0.257203 0.35593)
(0.53231 0.259027 0.399028)
(0.611472 0.282273 0.454922)
(0.68019 0.372452 0.487836)
(0.715281 0.401721 0.490377)
(0.786962 0.452257 0.555559)
(0.923431 0.609057 0.67484)
(0.955769 0.850912 0.729133)
(1.41739 0.899683 0.900983)
(1.65039 1.16653 1.0005)
(2.40573 1.46436 1.25549)
(2.60085 1.53604 1.32768)
(1.71583 1.37871 1.12667)