/*--------------------------------*- C++ -*----------------------------------*\
  =========                 |
  \\      /  F ield         | OpenFOAM: The Open Source CFD Toolbox
   \\    /   O peration     | Website:  https://openfoam.org
    \\  /    A nd           | Version:  7
     \\/     M anipulation  |
\*---------------------------------------------------------------------------*/
FoamFile
{
    version     2.0;
    format      ascii;
    class       volScalarField;
    location    "18.8";
    object      alpha.water;
}
// * * * * * * * * * * * * * * * * * * * * * * * * * * * * * * * * * * * * * //

dimensions      [0 0 0 0 0 0 0];

internalField   nonuniform List<scalar> 
15284
(
0.99942
0.999122
0.998094
0.996254
0.992517
0.986375
0.974252
0.954727
0.917218
0.863572
0.769435
0.665937
0.510412
0.36995
0.225625
0.126273
0.338767
0.505763
0.660893
0.729772
0.671514
0.528689
0.435305
0.412011
0.359057
0.332538
0.350625
0.280704
0.298489
0.371022
0.403722
0.450598
0.531424
0.67625
0.731766
0.788327
0.999421
0.998986
0.997905
0.996094
0.992302
0.986379
0.974231
0.95508
0.91747
0.863843
0.76947
0.664588
0.508134
0.370289
0.226164
0.129229
0.120258
0.161036
0.214048
0.336776
0.502806
0.660581
0.781469
0.833969
0.790839
0.79351
0.873609
0.925006
0.956787
0.976164
0.987379
0.993537
0.996804
0.998452
0.999244
0.99963
0.999853
0.99993
0.999931
0.99985
0.999783
0.999709
0.999786
0.999765
0.99983
0.999896
0.999913
0.999954
0.999976
0.999984
0.999989
0.999998
1
1.00001
1.00002
1.00004
1.00005
1.00007
1.00007
1.00008
1.00007
1.00008
1.00008
1.0001
1.0001
1.00011
1.00013
1.00011
1.00011
1.00011
1.0002
1.00031
1.00043
1.00056
1.00074
1.00102
1.00111
1.0011
1.00112
1.00114
1.00128
1.00044
1.00132
0.999774
0.999717
0.99944
0.998991
0.997955
0.996211
0.992475
0.986609
0.974472
0.955295
0.917605
0.863899
0.769483
0.664567
0.50819
0.370317
0.226303
0.12952
0.111832
0.213475
0.268383
0.226396
0.228489
0.345128
0.506731
0.665018
0.779357
0.862868
0.918541
0.952977
0.967534
0.952966
0.91941
0.872266
0.8711
0.918493
0.951545
0.973576
0.986087
0.992965
0.996452
0.998223
0.99911
0.999606
0.999825
0.999842
0.999802
0.99992
0.999928
0.999887
0.999697
0.999416
0.999579
0.999719
0.999826
0.999911
0.999947
0.999959
0.999969
0.999983
0.999994
1
1.00001
1.00003
1.00004
1.00006
1.00006
1.00007
1.00007
1.00007
1.00008
1.00007
1.00008
1.00008
1.0001
1.00009
1.00008
1.00009
1.00019
1.00031
1.00069
1.00085
1.00098
1.00107
1.00089
1.00075
1.00068
1.00068
1.00069
1.00078
1.00069
1.00036
0.9988
0.998797
0.999861
0.99986
0.999758
0.999695
0.99942
0.99869
0.99639
0.98816
0.962104
0.889324
0.712961
0.444504
0.170259
0.0628582
0.126337
0.151654
0.131034
0.115721
0.207925
0.342447
0.497145
0.658432
0.725162
0.65723
0.504049
0.348733
0.352148
0.516142
0.664793
0.778518
0.860852
0.919173
0.95519
0.976364
0.987452
0.993604
0.996761
0.998396
0.999201
0.999576
0.999689
0.999683
0.999837
0.999886
0.99981
0.999729
0.999223
0.999107
0.999107
0.999312
0.999615
0.999648
0.999831
0.99992
0.999961
0.99997
0.999971
0.999981
0.999996
1.00001
1.00003
1.00005
1.00005
1.00006
1.00004
1.00006
1.00005
1.00004
1.00005
1.00004
1.00005
0.999997
0.999997
1.0001
1.00038
1.00068
1.00089
1.00066
1.00071
1.00072
1.00068
1.00062
1.00055
1.00048
1.00048
1.00044
1.00039
1.00032
1.0002
1.0001
1.00003
1.00001
1.00001
1.00007
1.00002
0.999968
0.999403
0.999073
0.998781
0.998781
0.999169
0.99966
0.99982
0.999817
0.999837
0.999867
0.999881
0.999959
0.999959
0.99997
0.999917
0.99881
0.998203
0.998741
0.999239
0.99941
0.998994
0.998587
0.998115
0.998594
0.997653
0.995885
0.992357
0.986517
0.97607
0.958935
0.927425
0.875018
0.784571
0.675285
0.514959
0.351456
0.198039
0.1122
0.0854382
0.0866725
0.0829981
0.116787
0.166646
0.217659
0.34189
0.52582
0.6828
0.784226
0.861315
0.919724
0.957773
0.979014
0.988488
0.991482
0.991481
0.99331
0.995982
0.99773
0.998779
0.999373
0.999578
0.9998
0.999839
0.999797
0.99931
0.998773
0.998716
0.999041
0.999585
0.999804
0.999591
0.999583
0.999683
0.999873
0.999897
0.101939
0.132165
0.207311
0.343248
0.413467
0.34382
0.212565
0.220039
0.335132
0.509025
0.661966
0.779629
0.858699
0.914449
0.93788
0.913012
0.860718
0.791248
0.78373
0.860974
0.914993
0.95234
0.973676
0.986046
0.992925
0.99656
0.998365
0.99928
0.999516
0.999533
0.999445
0.999582
0.999831
0.999907
0.999841
0.999722
0.999794
0.999702
0.999636
0.999648
0.999687
0.999785
0.999853
0.999916
0.999944
0.999923
0.999939
0.999969
0.999996
1.00001
1.00004
1.00004
1.00004
1.00004
1.00003
1.00004
1.00003
1.00004
1.00001
0.999964
0.999954
0.999929
1.00003
1.00022
1.00057
1.00062
1.00071
1.00069
1.00062
1.00062
1.0002
1.00018
1.00021
1.00031
1.00044
1.00018
1.00014
1.00014
1.00013
1.0002
1.00022
1.00021
1.00015
1.00012
1.00008
1.00004
1.00002
0.999963
0.999948
0.999995
1.00003
1.00003
1.00002
0.999988
0.999923
0.9998
0.999859
0.999807
0.999778
0.999739
0.999748
0.999024
0.999409
0.99884
0.999455
0.999677
0.999518
0.999646
0.999774
0.999861
0.999918
0.999929
0.999975
0.999929
0.999955
0.999956
0.999891
0.99965
0.999797
0.999838
0.999735
0.999425
0.998738
0.998101
0.998101
0.998517
0.999479
0.99959
0.998945
0.999542
0.99909
0.998594
0.99754
0.998899
0.999201
0.998119
0.996952
0.995376
0.993608
0.991457
0.988085
0.98004
0.959949
0.921881
0.862542
0.784335
0.682306
0.523664
0.33883
0.204991
0.129271
0.0777195
0.0519381
0.0420572
0.0420664
0.0566513
0.0514651
0.0550552
0.105953
0.210921
0.340223
0.509503
0.670125
0.789462
0.870599
0.921945
0.953212
0.97223
0.983972
0.991184
0.995484
0.997927
0.99913
0.999593
0.999758
0.999758
0.999402
0.999138
0.999172
0.99962
0.99979
0.999852
0.999844
0.999936
0.999938
0.999914
0.999887
0.9999
0.999957
0.999965
0.999907
0.99906
0.999204
0.997372
0.989947
0.965076
0.890273
0.693434
0.444513
0.0668339
0.130261
0.15724
0.129579
0.125448
0.200683
0.333521
0.403369
0.332811
0.198756
0.126224
0.137188
0.203281
0.32693
0.511677
0.664649
0.776315
0.85888
0.892405
0.854264
0.774728
0.664592
0.523521
0.526794
0.666719
0.776638
0.857342
0.917759
0.95467
0.97523
0.986968
0.993352
0.996776
0.998478
0.999305
0.999695
0.999864
0.999922
0.999889
0.999612
0.998902
0.999062
0.999468
0.998973
0.999492
0.999778
0.9998
0.999876
0.999937
0.999953
0.999936
0.999903
0.999906
0.999933
0.999961
0.99998
0.999969
0.999952
0.999912
0.999961
1
0.999997
1
0.999971
0.999906
0.999894
0.999916
0.999917
0.999961
0.999965
0.999991
1.00009
1.00016
1.00026
1.00045
1.00093
1.00125
1.00077
1.00088
1.00129
1.00088
1.0006
1.00031
1.00084
1.00046
1.00065
1.00043
1.00021
0.999952
0.999938
0.999866
0.999917
0.999914
0.99986
0.999776
0.999701
0.99968
0.999735
0.9998
0.999687
0.999293
0.998439
0.996678
0.993131
0.986951
0.974858
0.95534
0.917613
0.863397
0.769324
0.664976
0.511139
0.366667
0.21533
0.125364
0.0656176
0.0551747
0.0453914
0.0557091
0.0767588
0.0935819
0.0773963
0.0771531
0.0753998
0.0445333
0.0519277
0.0757896
0.142137
0.199798
0.346976
0.408322
0.329269
0.210812
0.128329
0.0793373
0.0975374
0.131163
0.203574
0.317418
0.506386
0.579706
0.487362
0.326717
0.204451
0.135411
0.136766
0.228741
0.334102
0.484069
0.665732
0.726368
0.650755
0.495097
0.335471
0.240699
0.218608
0.327131
0.503216
0.663128
0.781235
0.861042
0.916948
0.940175
0.914443
0.857843
0.779014
0.670016
0.520397
0.5241
0.670921
0.77802
0.858933
0.916466
0.953391
0.974828
0.987027
0.993577
0.996949
0.998597
0.999373
0.99972
0.999832
0.999779
0.999747
0.999821
0.999871
0.999687
0.999688
0.999792
0.999114
0.998874
0.999199
0.99971
0.999855
0.999646
0.999288
0.999491
0.999719
0.999869
0.99993
0.999899
0.999782
0.999725
0.999861
0.999743
0.999828
0.999884
0.999908
0.999832
0.999718
0.999684
0.999522
0.999458
0.999679
0.999876
0.999846
0.999897
0.999925
0.999924
0.999921
0.999898
0.999848
0.999749
0.99979
0.999847
0.999841
0.999662
0.999481
0.999624
0.999699
0.99964
0.999093
0.999258
0.999618
0.99978
0.999807
0.999751
0.999671
0.0347332
0.0331427
0.0336324
0.127227
0.12077
0.124013
0.120501
0.210059
0.21189
0.124125
0.122015
0.213335
0.210535
0.219635
0.121688
0.214987
0.214133
0.217022
0.119829
0.123706
0.129143
0.135719
0.129933
0.126813
0.13329
0.173705
0.18867
0.419703
0.187999
0.213604
0.211781
0.210455
0.215853
0.130367
0.134584
0.219648
0.215251
0.130209
0.0853511
0.0579051
0.0733627
0.0770989
0.0809267
0.0474418
0.0482802
0.0671699
0.0595933
0.0968534
0.105805
0.223217
0.267463
0.20743
0.127894
0.0872599
0.0855586
0.134514
0.130725
0.131152
0.0889011
0.210246
0.215257
0.209677
0.21785
0.123855
0.0830781
0.0487936
0.0490629
0.0572014
0.044447
0.0334724
0.0785547
0.0978209
0.0753766
0.0360814
0.0432149
0.0444513
0.0421937
0.048285
0.0390808
0.0845131
0.0740022
0.132652
0.199132
0.340522
0.410684
0.341819
0.204538
0.126288
0.129136
0.0865673
0.0788091
0.0845224
0.0783476
0.133788
0.141037
0.217365
0.324128
0.492761
0.57603
0.497917
0.327147
0.205796
0.216056
0.135422
0.131811
0.216553
0.211291
0.34436
0.351783
0.342557
0.509972
0.66091
0.77782
0.861355
0.917814
0.953718
0.975217
0.987326
0.993803
0.997094
0.998689
0.999429
0.999761
0.999905
0.999905
0.999814
0.99937
0.999385
0.999485
0.999669
0.999669
0.999235
0.998978
0.999576
0.999687
0.999725
0.999675
0.99971
0.999448
0.999212
0.999216
0.999819
0.999722
0.999602
0.999526
0.999734
0.999735
0.999548
0.999838
0.999751
0.999826
0.999907
0.99991
0.99991
0.999891
0.999842
0.999875
0.999875
0.99975
0.999744
0.999801
0.999818
0.999792
0.999569
0.998797
0.99863
0.999458
0.999745
0.999711
0.999611
0.999552
0.999388
0.999267
0.999095
0.999597
0.999803
0.99976
0.999759
0.999715
0.999754
0.999863
0.999876
0.999817
0.999766
0.999649
0.999287
0.998516
0.996854
0.993484
0.987144
0.975235
0.954892
0.916611
0.860864
0.765965
0.661679
0.506304
0.367494
0.227234
0.136061
0.0400804
0.0498079
0.0647144
0.134709
0.163156
0.1349
0.0711807
0.0744954
0.0439267
0.0445121
0.0557095
0.0451976
0.0415331
0.0498877
0.0454476
0.0473519
0.0897075
0.104952
0.0855098
0.0800797
0.128863
0.15045
0.207371
0.351874
0.415441
0.345738
0.217046
0.228322
0.24035
0.3506
0.487843
0.645978
0.714234
0.648885
0.486059
0.336514
0.227784
0.152
0.133613
0.131817
0.223807
0.222617
0.220326
0.130091
0.0830227
0.0787083
0.0568475
0.0460002
0.0758516
0.0741079
0.134939
0.171512
0.14235
0.134786
0.170865
0.216141
0.217434
0.218647
0.357701
0.347691
0.340206
0.342954
0.501618
0.508627
0.514871
0.513908
0.519908
0.665373
0.779577
0.861926
0.918052
0.953683
0.975018
0.987062
0.993566
0.99692
0.998575
0.999347
0.999541
0.999456
0.999778
0.999776
0.999263
0.998797
0.999217
0.999509
0.999032
0.998888
0.998913
0.99885
0.998792
0.999629
0.99979
0.999567
0.999419
0.999598
0.999427
0.998976
0.998869
0.999156
0.999406
0.999877
0.99951
0.999204
0.999592
0.999752
0.999856
0.999755
0.999664
0.999596
0.999563
0.999564
0.999783
0.999774
0.999766
0.999586
0.999177
0.999657
0.999519
0.998901
0.999088
0.999502
0.999359
0.998847
0.999138
0.999031
0.999143
0.999241
0.999627
0.999757
0.999685
0.999409
0.999172
0.999429
0.999473
0.999948
0.99992
0.999797
0.999772
0.999571
0.999206
0.998494
0.998178
0.999115
0.999611
0.999615
0.999183
0.998037
0.998158
0.999398
0.999003
0.999179
0.998257
0.996826
0.994812
0.992501
0.990303
0.987652
0.980296
0.96037
0.922172
0.862623
0.784243
0.682142
0.523783
0.339301
0.205637
0.128513
0.0763478
0.0505382
0.0378215
0.025837
0.0264042
0.0236151
0.0393569
0.0617917
0.0614779
0.0573947
0.0413506
0.0159439
0.0226362
0.0120129
0.0122199
0.0146559
0.0167865
0.0305456
0.0469315
0.075313
0.0816975
0.0976568
0.210473
0.359202
0.52186
0.670922
0.787572
0.86922
0.922268
0.955502
0.974863
0.985923
0.992231
0.995879
0.996535
0.996632
0.997509
0.998636
0.999315
0.999678
0.999865
0.999865
0.999858
0.999673
0.999319
0.998627
0.997222
0.994346
0.993266
0.993341
0.993155
0.988418
0.977811
0.957712
0.921474
0.863594
0.780682
0.671333
0.523503
0.345007
0.201109
0.106225
0.139782
0.192696
0.32788
0.527076
0.685767
0.779929
0.860061
0.922668
0.961586
0.980595
0.986696
0.988917
0.991817
0.994607
0.996459
0.997858
0.998841
0.999423
0.999738
0.999858
0.999791
0.999196
0.999032
0.999464
0.999753
0.999884
0.999949
0.999976
0.999973
0.999976
0.999916
0.999906
0.999935
0.999897
0.999769
0.999673
0.999792
0.999743
0.999413
0.999383
0.998467
0.998055
0.99864
0.999669
0.999837
0.999744
0.999525
0.999581
0.99959
0.999531
0.998882
0.997833
0.996188
0.994163
0.993072
0.99275
0.988538
0.978429
0.95722
0.919513
0.861618
0.784639
0.682402
0.525427
0.342599
0.219365
0.165346
0.116569
0.0871281
0.0847342
0.0427544
0.0409477
0.0231962
0.0082661
0.00539688
0.00645342
0.00775827
0.00534642
0.013483
0.0270545
0.0495181
0.0744609
0.0744622
0.110427
0.223257
0.352294
0.514183
0.668515
0.789176
0.87057
0.922448
0.954419
0.973645
0.984737
0.991249
0.995129
0.997459
0.998478
0.998801
0.999206
0.999615
0.999802
0.99982
0.99966
0.999015
0.998843
0.999013
0.999753
0.999786
0.998923
0.998783
0.999253
0.999693
0.9999
0.999971
1.00001
0.999988
0.999934
0.999848
0.999923
0.999831
0.999736
0.999803
0.999452
0.998698
0.998055
0.998393
0.99938
0.999561
0.998971
0.998669
0.999608
0.99959
0.999314
0.998645
0.997719
0.996672
0.99523
0.992063
0.985667
0.974299
0.9544
0.920899
0.86746
0.787597
0.675615
0.522764
0.347101
0.207984
0.123161
0.0958597
0.0851751
0.0788958
0.0607201
0.0223906
0.0234522
0.00718677
0.0088878
0.00549614
0.0114464
0.011446
0.00595565
0.00575607
0.00725089
0.00968362
0.0239498
0.0305453
0.0683401
0.0939934
0.117217
0.196926
0.338835
0.517426
0.668135
0.785124
0.870273
0.924022
0.954901
0.972812
0.9836
0.990405
0.994645
0.997231
0.998662
0.99937
0.998503
0.998792
0.999457
0.999768
0.999435
0.998641
0.998639
0.99864
0.999222
0.999798
0.999799
0.999625
0.999481
0.999103
0.998406
0.996973
0.994384
0.990132
0.983366
0.972609
0.954699
0.923605
0.869326
0.783952
0.66729
0.51451
0.3412
0.202627
0.114759
0.080197
0.0697521
0.0453794
0.0485718
0.114353
0.130687
0.133162
0.125535
0.204639
0.222948
0.236859
0.219534
0.354814
0.357063
0.346175
0.339013
0.509607
0.504307
0.502834
0.501382
0.650419
0.654418
0.658084
0.663065
0.784155
0.782439
0.78072
0.777708
0.866594
0.867968
0.868593
0.869379
0.922804
0.922159
0.921648
0.920958
0.952764
0.953205
0.953609
0.953982
0.972473
0.972391
0.972196
0.971956
0.983598
0.983648
0.983678
0.983621
0.990508
0.990573
0.990615
0.990665
0.994736
0.994721
0.997271
0.997229
0.998701
0.998717
0.99948
0.999475
0.999224
0.9984
0.998062
0.998077
0.999221
0.999607
0.999814
0.999815
0.999701
0.999766
0.999765
0.999227
0.999134
0.999294
0.99894
0.998946
0.999463
0.99956
0.999743
0.999652
0.99921
0.998442
0.997204
0.995372
0.992919
0.990168
0.987355
0.980661
0.961319
0.922388
0.859994
0.780031
0.685431
0.527101
0.328631
0.193653
0.138917
0.0913316
0.0921391
0.0486009
0.0354313
0.0186733
0.0144763
0.0146706
0.0149442
0.0144755
0.0190716
0.0360168
0.0491452
0.0471936
0.0744528
0.0822668
0.100179
0.216716
0.361342
0.520793
0.671022
0.787635
0.869022
0.922431
0.95607
0.975308
0.985899
0.991843
0.994402
0.994866
0.996349
0.997907
0.998866
0.999403
0.999421
0.999686
0.999765
0.999552
0.999468
0.999489
0.999026
0.9989
0.998061
0.996579
0.994143
0.991392
0.990785
0.987404
0.978289
0.958403
0.921971
0.863986
0.78118
0.67083
0.523192
0.349154
0.206193
0.10739
0.121864
0.129818
0.0838589
0.0413532
0.0299653
0.0168864
0.0144747
0.012613
0.0130379
0.0157945
0.023512
0.025758
0.0421262
0.0680668
0.0582603
0.023598
0.00804217
0.00435263
0.0147062
0.0088547
0.00909183
0.00888878
0.00818929
0.00564208
0.00564103
0.00554146
0.00554146
0.0132697
0.0267339
0.0482448
0.0745776
0.07458
0.111688
0.222825
0.351253
0.513737
0.668415
0.788658
0.870039
0.922112
0.954364
0.973629
0.984706
0.991234
0.995121
0.997171
0.997948
0.998594
0.999238
0.99965
0.999658
0.999454
0.999055
0.998288
0.996959
0.994505
0.990338
0.983566
0.972724
0.954619
0.923357
0.869007
0.783599
0.667447
0.514551
0.339425
0.199882
0.112042
0.0801379
0.0730172
0.0329089
0.0711482
0.0948163
0.115127
0.195027
0.3379
0.517523
0.668229
0.785105
0.870274
0.923996
0.954847
0.972795
0.98366
0.990516
0.994708
0.997115
0.998266
0.998978
0.998805
0.99851
0.999062
0.997519
0.994928
0.990657
0.983678
0.972455
0.953961
0.922803
0.869415
0.784062
0.662829
0.509406
0.338831
0.204082
0.125219
0.124696
0.225187
0.348285
0.507953
0.662976
0.785887
0.870847
0.923449
0.954477
0.973435
0.98508
0.992054
0.99599
0.998094
0.999159
0.999652
0.99935
0.999072
0.999085
0.999584
0.999807
0.999855
0.999865
0.999924
0.999942
0.999882
0.999741
0.999694
0.999835
0.999935
0.999989
1.00002
1.00002
1.00022
1.00053
1.00089
1.00202
1.00098
1.00037
1.00011
0.999941
0.999929
1.00047
1.00037
1.00162
1.00065
1.00173
1.00124
1.00171
1.00161
1.00108
1.00124
1.00108
1.00237
1.00068
1.00005
0.99997
1.00083
1.00193
0.999078
0.999536
0.999793
1.00181
1.00141
1.00231
1.00056
0.999898
1.0008
1.00233
1.01156
1.01092
0.999131
1.00078
1.00076
0.991037
1.00558
1.0081
1.00218
1.00213
1.0017
1.00112
1.00175
1.00324
1.00809
1.00241
1.00194
1.0033
1.00286
1.00057
1.00012
1.00014
1.00008
1.00009
1.00012
1.00007
1.00006
1.00008
1.00008
1.00007
1.00005
1.00002
0.999999
1.00002
0.999889
0.999987
1
0.999917
0.999734
0.999969
1.00003
0.999835
0.999944
0.99998
1.00002
1.00001
1.00003
1.00001
0.999985
0.999988
0.99992
0.999838
0.999779
0.999423
0.999566
0.999683
0.999468
0.999244
0.999511
0.999481
0.998838
0.997619
0.995458
0.991681
0.985048
0.973697
0.953977
0.920865
0.864937
0.779322
0.657331
0.511944
0.358368
0.229026
0.123623
0.999046
0.999062
0.99755
0.99496
0.990701
0.983698
0.97231
0.95347
0.922016
0.868482
0.782281
0.657721
0.503735
0.345593
0.222843
0.133317
0.129401
0.215701
0.343481
0.505847
0.659827
0.783344
0.869495
0.923182
0.954997
0.974234
0.985808
0.992579
0.996332
0.998299
0.999215
0.999608
0.998945
0.999139
0.999589
0.99966
0.999657
0.999565
0.999667
0.999828
0.999876
0.999797
0.999542
0.999552
0.999811
0.999928
0.999982
1.00007
1.00025
1.00047
1.00068
1.00097
1.00096
1.00132
1.00172
1.00064
1.00031
1.00019
1.00019
0.999965
0.999993
1
0.999987
0.999976
0.999956
0.999963
0.999951
0.999957
0.999939
0.999925
0.999895
0.999835
0.99969
0.99938
0.998873
0.998873
0.999472
0.999313
0.99848
0.996648
0.993111
0.986899
0.975053
0.955635
0.918187
0.864076
0.768908
0.663619
0.506045
0.368843
0.222814
0.130516
0.327796
0.659848
0.99166
0.98496
0.973471
0.953456
0.919753
0.863105
0.77624
0.653304
0.509135
0.361149
0.230649
0.123443
0.110699
0.192772
0.337444
0.503038
0.645463
0.768881
0.864322
0.924325
0.957812
0.976315
0.986891
0.992977
0.996374
0.998209
0.999173
0.999659
0.999846
0.999545
0.998636
0.998604
0.999274
0.999756
0.999856
0.999624
0.999374
0.999543
0.999819
0.999912
0.999865
0.999776
0.999802
0.99993
1.00001
1.00022
1.00045
1.00034
0.999168
1.00016
1.00444
1.00256
1.00247
1.00699
1.00218
1.0022
1.00273
1.00187
0.999904
1.00167
1.0003
1.00031
1.00008
1.00001
0.999998
1.00001
0.999987
0.999966
1.00001
0.999982
0.999975
0.999995
1
1.00002
1.00002
1
0.99992
0.999793
0.999944
1.00004
1.00005
1.00003
1.00004
1.00002
0.999979
0.999953
0.999843
0.999612
0.999197
0.998803
0.999054
0.999413
0.999488
0.999058
0.998974
0.998318
0.999039
0.997884
0.995704
0.99171
0.985439
0.97456
0.958469
0.927554
0.876044
0.782367
0.670112
0.496991
0.361139
0.213999
0.118297
0.0764638
0.0574127
0.0238891
0.0265349
0.00928463
0.00434691
0.00382784
0.00382873
0.00422883
0.00422765
0.00599342
0.144236
0.22953
0.343026
0.501132
0.657616
0.782393
0.868098
0.922001
0.954593
0.97429
0.985929
0.992622
0.996296
0.998214
0.999156
0.999605
0.9997
0.999758
0.999758
0.999633
0.999429
0.999428
0.999595
0.999829
0.999799
0.999634
0.99947
0.999618
0.999819
0.99992
0.999975
1.00002
1.00021
1.00066
1.00115
1.00167
1.00118
1.00227
1.00045
1.00049
0.998726
0.998856
0.99953
1.00031
0.999507
1.00028
0.998959
0.999957
0.997688
0.998673
0.999792
0.999008
0.99966
0.998533
0.999751
0.999764
0.999152
0.998034
0.997856
0.998374
0.999404
1.00018
0.999352
0.999006
0.999533
0.99883
0.998688
0.997175
1.00026
1.00015
0.999881
1.0002
1.00001
0.998928
1.00093
1.00108
1.00112
1.00089
1.00055
1.00019
0.999975
0.99989
0.999776
0.999744
0.9998
0.999659
0.999703
0.999758
0.999846
0.999913
0.999981
1.00018
1.00056
1.00071
1.00019
0.999994
0.999959
0.999918
0.999888
0.999824
0.99992
0.999869
0.999678
0.999455
0.999454
0.999724
0.999856
0.999673
0.99909
0.998604
0.999249
0.999755
0.999846
0.999683
0.99922
0.998289
0.996469
0.993038
0.986828
0.976032
0.957498
0.925273
0.868596
0.775618
0.64631
0.502112
0.35697
0.21312
0.10684
0.130349
0.247059
0.356557
0.496299
0.652303
0.78079
0.8678
0.921899
0.954844
0.97469
0.98627
0.992816
0.996374
0.998241
0.999191
0.999662
0.999846
0.999846
0.99964
0.999188
0.99909
0.999526
0.999758
0.999802
0.999658
0.999455
0.999471
0.999897
0.999888
0.999903
0.999894
0.999816
0.999702
0.999714
0.999806
0.999827
0.999776
0.99972
0.999609
0.999195
0.99834
0.996541
0.993077
0.986603
0.975066
0.954758
0.920119
0.862228
0.774638
0.651377
0.50648
0.358189
0.234472
0.130884
0.356484
0.423839
0.356019
0.209465
0.210224
0.166951
0.127558
0.216117
0.213838
0.215771
0.355202
0.352168
0.513953
0.516501
0.350392
0.348073
0.510904
0.489903
0.726913
0.50264
0.343413
0.350935
0.433508
0.362534
0.47677
0.493874
0.505445
0.358119
0.436095
0.362768
0.210024
0.127836
0.161431
0.184278
0.18098
0.173252
0.0904807
0.176528
0.0911807
0.0914985
0.0928376
0.0622709
0.0408102
0.0429629
0.0758499
0.0796449
0.145128
0.163317
0.124663
0.12892
0.152536
0.219112
0.222297
0.215213
0.358782
0.420059
0.347491
0.343926
0.507217
0.521536
0.650265
0.759904
0.848253
0.88755
0.847954
0.759643
0.645047
0.644
0.51208
0.519416
0.653252
0.766026
0.852844
0.914055
0.939849
0.914094
0.854254
0.767074
0.645834
0.50226
0.344499
0.353801
0.227767
0.226027
0.124637
0.0810134
0.0738069
0.0746089
0.0457842
0.0444202
0.0839961
0.084523
0.0422361
0.0466649
0.0433721
0.0802868
0.0802605
0.134717
0.131982
0.224458
0.228196
0.231443
0.132648
0.144979
0.0781578
0.0435782
0.0469739
0.0450039
0.0581348
0.0774618
0.0767369
0.147944
0.143933
0.136804
0.133264
0.219168
0.221916
0.228967
0.125827
0.139949
0.201524
0.418226
0.193981
0.17465
0.186625
0.175984
0.196092
0.138987
0.184281
0.138148
0.135109
0.140138
0.131693
0.13534
0.130693
0.237362
0.229925
0.235729
0.23926
0.289331
0.363132
0.492578
0.646249
0.706999
0.635443
0.494515
0.352169
0.347344
0.227057
0.23495
0.354954
0.360181
0.359831
0.358824
0.505207
0.508521
0.647978
0.645623
0.762009
0.766224
0.761266
0.852057
0.915147
0.920952
0.955284
0.976054
0.987631
0.9938
0.996901
0.998074
0.99904
0.999596
0.999816
0.999815
0.999353
0.999032
0.999287
0.999739
0.999847
0.999847
0.999843
0.999643
0.999736
0.999648
0.998815
0.999046
0.999328
0.999708
0.99953
0.99898
0.999236
0.998805
0.998768
0.999221
0.999589
0.99978
0.99978
0.998869
0.998766
0.999757
0.999349
0.998501
0.998849
0.999581
0.999578
0.999745
0.999697
0.998815
0.997988
0.99797
0.999023
0.999557
0.999786
0.999865
0.999879
0.999867
0.999864
0.999675
0.999533
0.999222
0.999569
0.999531
0.999422
0.99932
0.999321
0.999795
0.999696
0.999835
0.999729
0.999372
0.999078
0.999071
0.998849
0.999375
0.999796
0.999528
0.999708
0.99982
0.999387
0.998794
0.999569
0.99868
0.998398
0.99797
0.998925
0.99926
0.998246
0.99878
0.998616
0.999641
0.998185
0.998641
0.999463
0.99944
0.998806
0.998271
0.999049
0.999482
0.999472
0.998766
0.99875
0.998912
0.998781
0.999653
0.999791
0.99964
0.998932
0.998545
0.998545
0.998613
0.998854
0.999643
0.999669
0.999315
0.999837
0.999732
0.999808
0.999771
0.998987
0.999659
0.999153
0.999685
0.999586
0.999279
0.999391
0.999717
0.999817
0.999622
0.999081
0.99853
0.99685
0.993452
0.986934
0.974777
0.953143
0.959798
0.960117
0.978291
0.988578
0.994009
0.996133
0.997762
0.998835
0.999369
0.999644
0.999752
0.999801
0.999688
0.998809
0.998981
0.999597
0.999494
0.99886
0.998471
0.998471
0.998501
0.99857
0.998722
0.998729
0.999101
0.999492
0.999516
0.999274
0.999039
0.999241
0.999504
0.999438
0.999395
0.999447
0.999566
0.99968
0.999147
0.998816
0.999549
0.999757
0.999322
0.999291
0.999238
0.999102
0.998573
0.997953
0.998497
0.998509
0.999344
0.999556
0.99929
0.998865
0.998096
0.998155
0.998805
0.999046
0.999017
0.99875
0.999344
0.999611
0.999585
0.999615
0.999348
0.999501
0.999701
0.999339
0.99946
0.99907
0.99925
0.99907
0.999613
0.999748
0.999395
0.999718
0.999722
0.999373
0.999618
0.999128
0.998614
0.998096
0.999031
0.99957
0.999286
0.999678
0.999782
0.99962
0.999565
0.999148
0.999529
0.998889
0.999498
0.999394
0.99892
0.999582
0.99965
0.99975
0.999473
0.999676
0.999723
0.999714
0.999419
0.99957
0.999469
0.99969
0.999646
0.999334
0.99962
0.999219
0.999484
0.999706
0.999848
0.99984
0.999824
0.999846
0.999802
0.999767
0.999833
0.999844
0.999778
0.999672
0.999688
0.99981
0.999796
0.99977
0.999749
0.999689
0.99963
0.999534
0.999622
0.999803
0.999811
0.999765
0.999673
0.999772
0.999554
0.999193
0.999024
0.999261
0.999436
0.999397
0.999025
0.999026
0.999536
0.999822
0.99978
0.999876
0.999894
0.999816
0.999764
0.999831
0.999791
0.999665
0.999762
0.999811
0.999798
0.999699
0.999409
0.999641
0.999581
0.999426
0.998913
0.998847
0.99931
0.999263
0.999796
0.999885
0.999893
0.999839
0.999828
0.999851
0.999776
0.999856
0.999461
0.999572
0.999578
0.999147
0.997895
0.995295
0.996541
0.992652
0.98589
0.972708
0.952803
0.915102
0.862447
0.771727
0.646267
0.992519
0.986641
0.974164
0.954503
0.915803
0.86144
0.767269
0.663205
0.508591
0.369374
0.231458
0.134386
0.0911463
0.440562
0.432636
0.422291
0.35985
0.35437
0.513311
0.540778
0.538425
0.684248
0.80096
0.877049
0.924214
0.954141
0.973361
0.98514
0.99204
0.995896
0.997956
0.999012
0.999521
0.999762
0.999907
0.999886
0.99983
0.999849
0.999831
0.999914
0.999956
0.999954
0.999906
0.999815
0.999811
0.999881
0.999969
0.999998
1.00002
1.00004
1.00005
1.00007
1.00008
1.0001
1.00011
1.00013
1.00015
1.00015
1.00016
1.00016
1.00018
1.00019
1.00019
1.0002
1.00019
1.00019
1.00019
1.0002
1.00026
1.00044
1.00103
1.0011
1.00061
1.00042
1.00023
1.00018
1.00021
1.00022
1.00024
1.00024
1.00023
1.00021
1.00013
1.00011
1.0001
1.00008
1.00008
1.00006
1.00004
1.00006
1.00002
0.99999
0.999948
0.999876
0.999892
0.999935
0.999978
0.99998
0.999959
0.999908
0.99976
0.999695
0.999637
0.999675
0.999921
0.999928
0.999788
0.999518
0.999091
0.998207
0.996469
0.993196
0.987219
0.976612
0.958145
0.92646
0.87304
0.790786
0.675893
0.556733
0.539519
0.668083
0.733639
0.671625
0.67834
0.680187
0.673937
0.691917
0.787712
0.865881
0.921998
0.957015
0.977129
0.988115
0.993949
0.996976
0.998517
0.999282
0.999649
0.999804
0.999881
0.999935
0.999938
0.999938
0.999928
0.999928
0.999908
0.999857
0.999733
0.999741
0.99988
0.999955
0.999996
1.00001
1.00003
1.00004
1.00005
1.00007
1.00007
1.00009
1.0001
1.00012
1.00013
1.00013
1.00014
1.00015
1.00015
1.00016
1.00017
1.00018
1.00018
1.00017
1.00017
1.00019
1.00027
1.00044
1.00133
1.00128
1.00038
1.00055
1.00074
1.00046
1.0008
1.0004
1.00034
1.00032
1.00016
1.00012
1.00015
1.00013
1.00013
1.00013
1.00013
1.00008
1.00012
1.0001
1.00009
1.00008
1.00008
1.00008
1.00007
1.00006
1.00005
1.00004
1.00003
1.00002
1.00001
1.00001
1
0.999993
0.999972
0.999945
0.999944
0.999965
0.999968
0.999927
0.999879
0.999816
0.999588
0.999275
0.99952
0.999784
0.999934
0.999931
0.999824
0.999811
0.999608
0.999245
0.998444
0.996808
0.993603
0.987601
0.976852
0.958379
0.927575
0.876368
0.795548
0.672155
0.542273
0.54981
0.688863
0.796068
0.87188
0.922471
0.954268
0.973794
0.9854
0.99212
0.995879
0.997897
0.998922
0.999389
0.999608
0.999771
0.999891
0.999836
0.999718
0.999283
0.999507
0.999722
0.999833
0.999896
0.999918
0.999944
0.999976
0.999999
1.00001
1.00002
1.00003
1.00003
1.00005
1.00005
1.00007
1.00008
1.0001
1.0001
1.00009
1.0001
1.0001
1.00011
1.00012
1.00014
1.00015
1.00014
1.00015
1.00015
1.00018
1.00029
1.00028
1.00019
1.00016
1.00015
1.00016
1.00016
1.00016
1.00014
1.00013
1.00013
1.00012
1.00011
1.00011
1.0001
1.00009
1.00007
1.00006
1.00005
1.00004
1.00004
1.00002
1.00002
1
0.999974
0.999924
0.999828
0.999733
0.999733
0.999757
0.999809
0.999764
0.999885
0.999936
0.999905
0.999824
0.999693
0.99978
0.999593
0.999213
0.998436
0.996897
0.993899
0.988113
0.977098
0.95663
0.920609
0.862574
0.783492
0.697178
0.574378
0.388991
0.404374
0.562167
0.530156
0.373439
0.373245
0.357522
0.422009
0.3538
0.352289
0.514485
0.533702
0.536554
0.53134
0.509374
0.511182
0.670165
0.677829
0.678689
0.67036
0.734089
0.667421
0.511063
0.66799
0.668291
0.662212
0.778784
0.782268
0.781617
0.662393
0.511006
0.349247
0.344949
0.354673
0.354219
0.347091
0.514181
0.515891
0.665163
0.662744
0.775469
0.779021
0.77771
0.656647
0.510831
0.342927
0.33945
0.348321
0.340634
0.50123
0.503977
0.507608
0.660918
0.654866
0.65978
0.676026
0.666636
0.786903
0.863945
0.918186
0.953772
0.975177
0.987241
0.993719
0.99703
0.998648
0.999408
0.999748
0.999857
0.999914
0.999689
0.999026
0.999024
0.999344
0.999777
0.999794
0.999578
0.999023
0.999295
0.999682
0.999817
0.999883
0.999883
0.999755
0.999604
0.999881
0.999895
0.999913
0.999907
0.999906
0.999897
0.999803
0.999838
0.999919
0.999893
0.999853
0.999593
0.999443
0.999529
0.99963
0.99942
0.999382
0.999736
0.99977
0.999211
0.998776
0.999515
0.999777
0.999873
0.99986
0.999727
0.999558
0.999712
0.999769
0.999847
0.999852
0.999883
0.999883
0.999869
0.999834
0.999859
0.999858
0.999895
0.99983
0.999932
0.999934
0.999897
0.999749
0.999736
0.999913
0.999735
0.999179
0.999232
0.997397
0.990527
0.96728
0.893541
0.714442
0.430614
0.150776
0.1455
0.145687
0.228778
0.22766
0.36114
0.358192
0.356862
0.236954
0.244009
0.245201
0.240002
0.23363
0.349971
0.359662
0.405544
0.412297
0.462018
0.509428
0.644819
0.704468
0.627338
0.495435
0.361048
0.35449
0.36507
0.383861
0.499863
0.497273
0.492114
0.633995
0.633458
0.630893
0.758175
0.759083
0.759274
0.767302
0.819168
0.863172
0.918753
0.95469
0.968828
0.953794
0.917192
0.85474
0.854406
0.853993
0.775772
0.765744
0.849448
0.911503
0.937969
0.911548
0.850457
0.761415
0.639569
0.502728
0.512343
0.63865
0.75927
0.851858
0.916027
0.919648
0.954644
0.954023
0.959683
0.977899
0.988384
0.993951
0.996113
0.997914
0.99904
0.999635
0.999549
0.999238
0.999572
0.999666
0.999109
0.998523
0.998495
0.999257
0.999779
0.999813
0.999886
0.999886
0.99978
0.999787
0.999874
0.999853
0.999858
0.999756
0.998775
0.99892
0.999487
0.999839
0.999858