/*--------------------------------*- C++ -*----------------------------------*\
  =========                 |
  \\      /  F ield         | OpenFOAM: The Open Source CFD Toolbox
   \\    /   O peration     | Website:  https://openfoam.org
    \\  /    A nd           | Version:  7
     \\/     M anipulation  |
\*---------------------------------------------------------------------------*/
FoamFile
{
    version     2.0;
    format      ascii;
    class       surfaceScalarField;
    location    "18.8";
    object      alphaPhi0.water;
}
// * * * * * * * * * * * * * * * * * * * * * * * * * * * * * * * * * * * * * //

dimensions      [0 3 -1 0 0 0 0];

internalField   nonuniform List<scalar> 
44249
(
-0.00269463
0.000774113
-0.000946322
-0.000109055
-0.000262501
-0.00340541
0.000666996
-0.000844695
8.26332e-06
0.000880859
-0.0029232
0.000615402
-0.000818135
5.46222e-05
-0.000332563
-0.00370679
0.000540306
-0.000764129
0.000195032
0.000817222
-0.00311313
0.000515497
-0.000730001
0.000233791
-0.000602894
-0.00386703
0.000462911
-0.000657734
0.000299273
0.00066905
-0.00314991
0.000439813
-0.000612568
0.000272153
-0.000780069
-0.00370881
0.000370251
-0.000511969
0.000346614
0.000420038
-0.00285203
0.000310113
-0.000431599
0.000420804
-0.00104069
-0.00314854
0.000239836
-0.000317937
0.000625976
-7.34055e-05
-0.00192255
0.000170156
-0.000272439
0.00095001
-0.00180848
-0.00146045
0.000145797
-0.000166311
0.0007716
-0.00089572
-0.00079976
0.000179674
-0.00022632
0.000439326
-0.000720567
-0.000688747
0.000106789
-7.99204e-05
0.000305519
-0.000201691
-0.000517067
3.60876e-05
1.64504e-05
0.000137557
-8.79288e-05
2.84736e-05
-5.19314e-05
0.000153727
-6.48574e-05
0.000970312
-1.67033e-05
1.03628e-05
-0.000146744
0.00129422
0.000192266
2.47987e-05
-0.000218597
0.00122741
0.00015184
0.000165074
-3.19345e-05
-0.000643024
0.000745313
0.000531991
0.000671676
-0.00060531
0.000168436
5.46712e-05
-0.000255645
-7.61538e-06
-2.93523e-05
7.17143e-06
-0.000706238
0.000128932
0.000414141
-0.000288316
-0.000628937
0.000498541
0.000557099
-0.000336589
-0.000193947
0.000273094
0.000105452
-0.000171271
-6.50454e-05
1.29421e-05
-7.13774e-05
0.000234597
0.000114324
6.45983e-05
0.000269714
0.000226257
9.78919e-05
-0.000631463
0.000437308
0.00026705
-8.67317e-05
-0.000434358
0.000391347
0.000340593
0.000194979
0.000229394
0.000431649
0.00060647
0.000117456
6.24292e-05
0.00051129
-0.000425974
0.000399447
0.000226273
0.000538723
-0.00122661
0.000665635
0.000609893
8.97692e-05
0.000272054
-0.00260368
-4.92623e-05
-0.000715526
-0.00327278
5.71798e-05
0.000495118
-0.00275639
8.24937e-05
-0.000674637
-0.00350759
0.000211473
0.000486365
-0.0029109
0.000231694
-0.000869335
-0.00364872
0.00029349
0.000408376
-0.00296075
0.000244136
-0.000978238
-0.00353425
0.000293038
0.000238415
-0.00270353
0.000309905
-0.00114475
-0.00300784
0.000506623
-0.000156718
-0.00185228
0.0008498
-0.00188058
-0.00144901
0.000744667
-0.000953871
-0.000768134
0.000397276
-0.000815974
-0.000622335
0.000214708
-0.000227805
-0.000466071
3.95287e-05
-6.82549e-05
0.000116661
-8.37248e-05
0.000228337
-0.000207192
-8.84229e-05
0.000114274
0.000137606
0.000171599
0.00051247
-0.000173154
-9.56484e-05
0.000894831
2.45031e-05
-0.000124169
0.00118465
9.846e-05
-6.66021e-05
0.00154386
0.000139411
-7.9467e-05
0.00150198
0.000185088
0.000296171
-0.000291059
-0.000890273
0.00103326
0.000606139
0.000803899
0.000154122
-4.98648e-05
0.00100478
-0.000141478
-0.000111921
0.00124698
0.000163334
-0.000202534
-0.000139457
0.0015191
0.000169213
-0.000285711
-0.000112179
0.0018378
0.00017319
-0.000299977
-0.00016213
0.00203896
0.000271484
-0.000312121
-0.000141487
0.00211794
0.000251738
-0.000283154
-3.64027e-05
0.00200658
0.000257735
-0.000206551
6.61965e-05
0.00180678
0.000123702
-7.81537e-05
0.000157162
0.00157208
-8.16904e-05
3.39414e-05
0.000283776
0.000910742
7.97111e-05
0.000294955
0.00028701
0.00205536
0.00101413
-0.00106911
-0.00108952
0.00240713
-0.000566505
-0.000231829
0.000446626
0.00184447
-0.000467414
0.000638764
0.000391016
0.00137157
-0.00041992
0.000450832
0.000441692
0.000644609
0.000316868
0.000283747
0.000125973
0.00157086
0.000600798
-0.000620807
-0.000906572
0.00130882
-0.000703885
0.000672178
0.000293338
0.00087189
-0.00040341
0.000482736
0.000357371
0.00132163
-0.000623454
0.000898399
-0.000724846
0.00138037
-0.000685629
0.00020239
0.000424261
0.000861306
-0.000433907
0.000630562
0.000322113
0.00126257
-0.000609637
0.000907587
-0.000699464
0.00127055
-0.00063139
0.000197975
0.000425063
0.000774907
-0.00035648
0.00056529
0.000286473
0.00124658
-0.000535545
0.000638923
-0.000575271
0.000824462
-0.000554194
0.000683621
0.000292296
0.00133384
-0.000705851
0.000790969
-0.000594745
0.000973263
-0.000707713
0.000724863
0.000343055
0.00155612
-0.000774328
0.000855214
-0.000663988
0.00109624
-0.000777326
0.000799135
0.000437702
0.00167889
-0.00083822
0.000937475
-0.00068214
0.00117971
-0.000848572
0.000869636
0.000477714
0.00181853
-0.000924304
0.00100852
-0.000723283
0.00126567
-0.000928093
0.000927606
0.000552877
0.00187395
-0.000969468
0.0010747
-0.000713813
0.00118367
-0.000944652
0.00111168
0.000522691
0.00184076
-0.00113899
0.00116197
-0.000680408
0.000718853
0.00111336
0.000390668
-0.000382787
0.00119484
0.0012997
-0.000481209
-0.00129458
0.00190775
-0.00208541
0.00246385
-0.00109205
0.00182689
-0.00152957
0.000736805
0.000872822
0.00210599
-0.00191645
0.00261407
-0.000977159
0.000707085
0.00214224
0.000296641
-0.0010408
0.000536935
0.00243172
-0.000446172
-0.00181558
0.00115914
-0.00334761
0.00361087
-0.00088622
0.000859851
-0.00223939
0.00209237
0.000445643
0.000848181
-0.00197723
0.00244608
-0.00045775
0.000446447
0.000881052
-0.000632084
0.000151962
0.00014942
0.00106723
-0.000124636
-0.00064588
0.00116993
-9.74556e-06
-0.00101166
0.00204811
-0.000444545
-0.000182618
-0.000251267
0.00259508
-0.000118963
-0.000248099
-0.000180274
0.00309408
-0.000649337
-0.000220667
0.000370918
0.00305257
-0.000705414
-0.000964407
0.00171099
0.00253286
-0.00214925
-0.00151074
0.0041795
0.00122148
0.000619398
0.000690042
0.000832011
-0.00214378
-0.000381738
-0.00203906
-0.00476437
0.00297506
-0.00255786
-0.000815381
-0.000991187
-0.000104702
-0.00314854
0.000450298
-0.000868253
-5.94746e-05
-0.0025579
-0.000779114
-0.000774198
1.84754e-05
-0.0032221
0.000415979
-0.000665483
0.000121531
-0.00272376
-0.000722967
-0.000617638
0.000130599
-0.00347782
0.000430102
-0.000542848
0.000246739
-0.00289778
-0.000899189
0.000593593
-0.000520392
0.000256485
-0.00364256
0.000377887
0.00054025
-0.000466875
0.000312501
-0.00296364
-0.000994406
0.000540107
-0.000445355
0.000255821
-0.00354012
0.000223613
0.000493497
-0.000378755
0.000301094
-0.0027078
-0.00115271
0.000441869
-0.000322069
0.000310777
-0.00300897
-0.000156812
0.000380987
-0.000254276
0.000501289
-0.00185161
-0.00187317
0.000313586
-0.000183663
0.000840043
-0.00144677
-0.000946306
0.000268497
-0.000157093
0.000736188
-0.000766283
-0.000810476
0.000242298
-0.000182986
0.000393082
-0.00061879
-0.000105341
-0.000223888
0.000209987
0.000211192
-0.000463481
-6.44628e-05
-3.2558e-05
0.000142645
3.51975e-05
8.25915e-05
-8.03601e-05
-2.73541e-05
0.000114436
0.000155016
-0.000151076
-0.000100301
0.000313376
0.000163039
-0.000100541
-9.56642e-05
-0.000122319
0.000117937
0.00021485
0.000172754
0.000129474
8.12734e-05
0.000230757
-7.63419e-05
0.000616776
-3.30995e-06
-0.000174449
0.00102058
3.45974e-05
-9.31607e-05
0.00128714
0.000165113
-7.78237e-05
0.00174121
0.000329631
-0.000333287
0.00204763
4.65995e-05
0.000334391
-0.000581925
0.00240243
-0.000129078
0.000366442
-0.000522152
0.00211834
-0.000223923
0.000810333
-0.000260851
-0.00153995
0.00129918
0.000920608
0.00145214
-0.00177612
0.000174504
-0.000134961
-0.00148053
-6.91874e-05
-0.000310421
-4.28521e-05
-0.000307995
0.000921679
-0.000162662
0.00120489
-0.00014926
0.00179412
-0.000210257
0.00187496
-0.000161424
0.000372683
0.00202097
7.28955e-05
4.47755e-05
0.00155124
0.000161393
0.000572054
0.00135245
0.000165825
0.000159026
0.000986738
6.79676e-05
0.000216807
0.00225904
-0.00122663
-0.00119699
0.00115185
0.00258591
-0.000475721
-0.000258699
0.000407966
0.00202747
-0.000361602
0.000353279
0.00157095
-0.000400227
0.000388802
0.00105863
-0.000324055
0.000416061
0.00158632
-0.000645841
-0.000868951
0.000986931
0.00169492
-0.000715834
0.000114043
0.000492879
0.00114514
-0.000525214
0.00037023
0.000512857
0.00022873
-4.46452e-07
0.00117597
-0.000498252
-0.00078857
0.000962063
-0.000656973
0.00018505
0.000663641
-0.000355245
0.000219477
0.00115147
-0.000545367
-0.00055241
0.000935104
-0.000623661
0.000208124
0.000444377
0.000180185
-4.63091e-05
0.00105234
-0.000440234
-0.000703587
0.000481407
0.000156267
-0.000140012
0.00112278
-0.000493736
-0.000853844
0.000817167
-0.000618857
0.000216305
0.00132965
-0.000682662
-0.000604515
0.000885216
-0.000650623
0.000317302
0.00140995
-0.000751909
-0.000611416
0.000936274
-0.000716965
0.000341612
0.00147838
-0.000830271
-0.00063656
0.000966729
-0.000800035
0.00038305
0.00154542
-0.000960063
-0.000588592
0.000623347
0.000297757
-0.000320988
0.00105485
-0.000454958
-0.00111598
0.00163189
-0.0017466
-0.000951202
0.00212044
0.00151973
-0.0012335
0.000615521
0.000729532
0.0018167
-0.00148718
-0.000896235
0.000716834
0.000283057
-0.000713724
0.000809391
-0.000483964
-0.00152571
0.00141624
-0.0027615
-0.00096996
0.00312433
0.00137233
-0.00206562
0.000580725
0.00152823
0.00114098
-0.00237592
-0.000741626
0.000290323
-0.000103918
-0.0012858
-0.000147904
-0.000248638
-0.00129096
0.00022391
-0.00242924
-0.000266046
0.00232385
0.0011346
-0.000884607
-2.72732e-05
0.00255547
-0.00154875
-0.00131484
0.00144405
0.00341331
-0.00101506
-0.000273085
0.000430413
0.00462538
-0.000898527
-0.000760351
0.00584163
-0.000325489
-0.00101198
0.00576032
0.000354855
-0.0009262
0.00391427
-0.00483835
0.00289652
0.00378655
0.00687451
-0.000159455
-0.00104505
-0.00175657
0.00970926
-0.00335605
-0.00314374
0.00366467
0.00745962
0.00422661
-0.00799577
0.00601631
-0.0115624
-0.00243432
0.00172074
0.000688466
-0.00151891
-0.000647847
-0.000600985
-0.00150951
-0.00195693
0.000786305
-0.00183055
-0.000394511
-0.000476505
-0.00173957
0.00133557
-0.00194166
-0.00824811
0.00577761
-5.23754e-06
-0.00753303
-0.0019043
-0.00887424
-0.00632455
-0.000453201
0.00460937
0.00279302
-0.00645083
-0.00550043
0.00401553
-0.000904405
-3.39739e-05
-0.00735296
-0.00458631
-0.000657667
0.0032482
0.00290742
-0.00616406
-0.00374495
0.00302394
-0.000564248
0.000132947
-0.00785123
-0.00266113
4.70435e-05
0.00237564
0.00206929
-0.00625619
-0.00183897
0.00202897
0.000847523
-0.00222505
-0.00670018
-0.000858946
0.00153179
0.00140401
-0.000591022
-0.00268232
-0.000360862
0.000878207
0.00441539
-0.00682857
-0.00208347
0.000107433
0.00064413
0.000781351
-0.000187138
-0.00128297
1.31592e-06
0.000509291
0.000438102
-0.000250162
0.000971624
-2.80959e-05
0.000101908
-0.00154057
0.000242856
0.000135544
-0.000113833
-1.66777e-05
-7.7356e-05
0.000101574
6.2007e-05
0.000200502
0.00014663
3.20386e-05
0.000119579
-0.000117127
0.00035012
-3.38537e-05
-0.000158143
0.000722663
0.000120654
-6.76489e-06
-0.000244378
0.00119811
1.92542e-05
1.89725e-05
-0.000235489
0.00115136
-0.000138695
0.000343215
6.62182e-05
-0.000824778
0.000879173
0.000447518
0.000735802
-0.000770137
-1.52446e-05
-3.86823e-05
-0.000419793
-6.12174e-06
-0.000141349
4.1348e-05
-9.83077e-05
0.000480707
-0.000105204
0.000744527
-5.25064e-05
0.000959609
8.56803e-05
0.00127251
0.000293003
-0.000163466
0.00169351
0.000304163
-0.000300708
0.00205032
0.000354625
-0.000279324
0.0025289
0.000499568
-0.000122596
0.00242634
0.000388301
-0.000165623
-9.55798e-05
0.00258176
0.000275492
8.93989e-05
-0.000507077
0.00221975
7.00807e-05
0.000283247
1.5693e-05
0.00204529
9.59502e-05
-0.000100847
0.000182601
0.00184389
-1.7039e-05
-1.51158e-05
0.00023505
0.00162717
-0.000253361
0.000210737
0.000259955
0.00104906
0.000245998
0.000225328
0.000106828
0.00064662
0.000332935
-8.87157e-05
0.000158158
0.00144412
-0.00101543
-0.000774404
0.000992282
0.00161882
-0.000690678
0.000177395
0.000338566
0.0010682
-0.000448778
0.00072383
0.000275177
0.000479691
0.000408292
0.000190897
-1.1055e-05
0.00106645
0.000641844
-0.000464778
-0.000764257
0.000840198
-0.000638487
0.000689716
0.000174076
0.000341704
0.000465181
0.000141892
-0.000108944
0.000760695
-0.000450947
-0.000693949
0.000725593
0.000867621
-0.000612426
0.000313913
0.000191572
0.000347271
0.000513906
0.00010164
-9.53649e-05
0.00079544
0.00064678
-0.000423275
-0.000671673
0.000640473
-0.000556852
0.000611262
0.000100318
0.00107744
-0.000638141
0.000760677
-0.000559639
0.000701362
-0.000620952
0.000775936
0.000220836
0.00103816
-0.00073835
-0.000633319
0.00103469
0.000963574
-0.000645872
0.000330869
0.00038934
0.00116905
-0.000793627
0.00137009
-0.00078209
0.00103096
-0.000708047
0.000406415
0.000439491
0.00122008
-0.000863836
-0.000815077
0.00148966
0.00105764
-0.000767198
0.000461309
0.00046813
0.00121869
-0.000904901
-0.000791932
0.00153563
0.00111815
-0.000798696
0.000410347
0.000488654
0.00137413
-0.00100285
0.00146488
-0.000718116
0.000541497
0.00101841
0.000204773
-0.00039081
0.000744167
0.00121044
-0.000405752
-0.00100728
0.00122473
-0.00165368
-0.000872505
0.00204532
0.00119018
-0.00122056
0.000474935
0.000779846
0.00131347
-0.00142767
0.00210503
-0.000800803
0.000465126
0.0015574
7.97081e-05
-0.000789015
0.000148553
0.00189868
-0.000369843
-0.0012122
0.000768876
-0.00249769
-0.000769962
0.00264717
0.000569064
0.00147582
2.15375e-05
-0.0012977
-0.000719883
0.0029266
-0.000297821
-0.00133974
-0.000807804
-0.00265483
-0.000161048
0.00290386
-0.00033669
-0.0029567
-4.48917e-05
0.00253068
-0.000349432
0.00175422
-0.00171424
-2.69008e-05
0.00163733
-0.00177375
-0.000420539
0.000207862
0.00349227
0.00117944
-0.00127946
0.00368996
-0.00196377
0.000549454
0.00121681
0.00371557
0.000712218
-2.6402e-05
-0.00071172
0.00318713
-0.00104683
0.00145912
0.000115729
0.00383114
-0.000994537
0.000618617
-0.000268457
0.00599812
-0.00192241
-0.000536358
0.000291335
0.00914444
0.000497828
-0.0022181
-0.00142678
0.0123739
0.000125474
-0.00351745
0.0079707
-0.0090481
0.00691048
0.00653904
0.0221481
-0.00645894
-0.00498297
-0.00273717
-0.0200772
-0.00610308
-0.0127123
-0.0246767
-0.00581047
-0.00826522
-0.0126928
-0.00316357
-0.00633808
-0.00816609
-0.00170012
-0.00566905
-0.00555742
-0.00114004
-0.00438888
-0.00407346
-0.000860852
-0.00376198
-0.0038713
-0.000492692
-0.00295068
-0.00340861
-0.000836137
-0.000880733
-0.0017016
-0.000646028
0.00134989
-0.0015572
-0.00105657
0.000381249
-0.00115668
0.000348275
0.000671105
-0.00124236
-0.000370857
-0.000215483
0.00140661
-0.00142983
-0.00156711
0.00203575
-0.00153901
-0.000799199
-0.00121975
-0.000488721
0.000849027
-0.00143306
-0.000554305
-8.20498e-05
0.0015437
0.00140735
-0.000742956
-0.00135982
-0.00105572
0.000461753
0.00181486
-0.00107745
-0.000388119
0.000639172
-0.00111153
-0.000478295
0.00276465
0.00355223
-0.00172179
2.43752e-06
-0.00119471
0.00270761
-0.0004157
0.000740805
0.000516945
0.00147843
-0.00127247
-0.00207527
-0.00315632
-0.00167887
0.0026845
-0.000680341
0.00127297
-0.00236857
-0.00149521
-0.000527689
0.00112465
0.000109733
-0.00286806
-0.00130621
-0.000450352
0.000976736
0.00127659
-0.00218911
-0.0011888
-0.000375294
0.000871773
1.10688e-05
-0.00249255
-0.00105378
-0.000339633
0.000656883
0.00103837
-0.000965683
-0.000516253
-0.00106233
-0.00780161
-0.000974431
-0.000599665
8.01184e-05
-0.000122806
0.00206967
-0.00037845
0.0024571
0.00216996
0.000734344
-9.04801e-05
1.55221e-06
0.00124322
0.00126768
-0.00198703
0.000161604
-0.00060061
-0.000418811
0.00187853
-0.000483519
0.00237355
0.00201204
0.00173829
0.000164538
-0.000184032
-0.000878618
-0.00701419
-0.000636777
0.000347036
0.00201644
0.000169346
-0.0013734
-0.000229446
-0.00265061
0.00231515
-0.000498147
6.52848e-05
0.000285395
-0.00245315
-0.000183753
-0.000266376
0.000249167
4.24994e-06
-0.00272137
-0.000301354
-3.25319e-05
0.000117804
0.000487319
-0.00247768
4.17235e-05
-0.000266786
5.32663e-05
-6.54832e-05
-0.00265883
-0.000145317
-2.57326e-05
-6.60988e-05
0.00043037
-0.00233641
0.000193786
-0.000439988
-0.000122502
6.81121e-05
-0.00246331
2.05903e-05
0.000189965
-0.000214832
0.000169096
-0.00215297
0.0002661
-0.000623265
-0.000188938
0.000306645
-0.00220086
1.76804e-05
0.000192372
-0.000179261
0.000142153
-0.00163251
0.000212073
-0.000729767
-0.000136594
0.000279327
-0.00141397
9.95108e-05
4.88765e-05
-6.76852e-05
-2.59633e-05
-0.000973953
0.000304449
-0.000324428
-0.00013277
7.95094e-05
-0.000647449
4.46965e-05
0.000138258
-9.50447e-05
-5.86107e-05
-0.000189832
-0.00022753
6.70078e-05
1.52356e-05
-5.90141e-05
2.67952e-05
-0.000143611
2.77427e-05
5.62928e-05
-0.000125296
-4.38283e-06
5.0569e-05
-0.000125922
4.30098e-06
4.14036e-05
1.85881e-05
0.000267329
2.51742e-06
-0.000170426
0.000289534
-0.000135233
-3.23531e-05
2.08323e-05
0.000319915
0.000119132
0.000248365
0.000320215
0.000140546
-6.08496e-05
-2.20213e-05
0.000264757
0.000185219
-8.44273e-05
-2.84075e-05
0.00044167
6.95065e-05
-4.52878e-05
-7.2472e-05
0.000603974
-0.000104048
9.99847e-05
4.91498e-06
0.000619034
-0.0001463
0.000143892
8.6251e-05
0.000711231
-1.36064e-05
-1.05933e-05
-1.56446e-05
0.000914109
0.000103947
-0.000113215
-0.00014956
0.00114708
5.79123e-05
-9.82863e-05
-0.000156172
0.00123878
-9.21628e-05
4.30316e-05
-1.85266e-05
0.00111504
-0.00023834
0.000184686
0.000190073
0.000875262
-0.00021798
0.000216756
0.000245454
0.00069764
-0.000108452
0.000118602
0.000165469
0.000694897
1.63218e-05
-3.19705e-05
1.63912e-05
0.000795259
9.28075e-05
-0.00013584
-5.44549e-05
0.000919717
0.000129027
-0.000179076
-7.31669e-05
0.00102574
0.000107347
-0.000168214
-4.46022e-05
0.00108763
5.25615e-05
-0.000125845
1.1495e-05
0.000907054
0.000141448
-5.99392e-05
9.87429e-05
0.00100826
0.00171754
-0.000771163
-0.00104814
0.00137988
0.000190964
-0.000469914
-9.3284e-05
0.00134759
0.000170815
-0.00024003
0.000100865
0.0012677
0.000160963
-0.000223604
0.000141445
0.00116545
0.000178211
-0.000237746
0.000160289
0.0010528
0.000190818
-0.000256944
0.000177562
0.0007943
0.000233035
-0.000175809
0.000200782
0.00115982
0.001642
-0.000926431
-0.00108188
0.00164958
-0.00107735
0.000448436
0.000137861
0.00162646
0.00017823
0.000398967
-0.000555553
0.00158547
0.000295306
-0.000606629
0.00035094
0.00122254
0.000403496
-0.000438108
0.000396197
0.00185623
-0.00193812
-0.00173081
0.00267458
-0.00318559
-4.18204e-05
-0.00328471
0.000472312
-1.74699e-05
7.07347e-05
5.25906e-05
0.000270545
-8.81302e-05
-2.87592e-05
0.000457754
3.91211e-05
-7.76174e-05
-7.44831e-06
0.000608622
-1.62197e-06
0.000179664
-0.000118593
-0.00038455
0.000468602
0.000283816
0.000350891
-0.000265356
6.80933e-05
-5.97455e-05
2.11555e-06
-3.78429e-05
7.98827e-05
-2.45583e-05
0.000500761
-0.000204641
0.000866825
0.000113948
-0.000239014
0.00126618
0.000175758
-3.35106e-05
0.00149113
-0.000176168
0.00020927
-0.000126626
0.00182234
-0.000380184
0.000310724
-0.000172871
0.00162254
-0.000390272
0.000730498
-8.34065e-05
-0.00132628
0.00102619
0.000711088
0.00123337
-0.00135581
-6.60593e-05
-0.000255606
-0.00114769
-0.000197225
-0.000332073
-0.000114355
-0.000259494
0.00073192
-4.98261e-05
0.00096953
-7.86736e-05
0.00142085
-0.000117069
0.00164715
0.000485496
-0.000180584
0.0018251
0.000336778
-0.000107395
0.0019094
0.000197876
4.43596e-06
0.00190726
-5.35919e-05
0.000132056
0.00144387
0.000166082
0.00039606
0.00126463
2.21271e-05
0.000141011
0.000879382
-3.92856e-05
0.000171543
0.00185635
-0.00120712
-0.00108179
0.0013123
0.00197122
-0.000623912
0.000216644
0.000291537
0.00170298
-0.000298588
0.000130239
0.000436135
0.00117784
-0.000413097
0.00024751
0.000541771
0.000204973
-1.80401e-05
0.00110626
-0.000613845
-0.000850766
0.000900062
0.00119177
-0.000654631
0.000247299
0.00032132
0.00043233
0.000186361
-6.62296e-05
0.000889765
-0.000523753
-0.000775712
0.00084158
0.000980983
-0.000656599
0.000217292
0.000347518
0.000356396
0.000120681
-0.000109349
0.000786257
-0.000500569
-0.000722062
0.000792554
0.0009251
-0.000658537
0.00034677
0.000172589
0.000374396
0.000103774
-0.000110354
0.000855345
-0.000424785
-0.000694535
0.000404004
7.49727e-05
-0.000244934
0.000927462
-0.000455996
-0.000806041
0.00045438
9.92495e-05
-0.000272331
0.001017
-0.000485136
-0.000871275
0.000487545
0.000117515
-0.000296369
0.00106079
-0.000503857
-0.000933396
0.000500647
0.00011991
-0.000327172
0.00105127
-0.000498914
-0.000956713
0.000451174
0.000130136
-0.00032895
0.000674984
-0.000381638
-0.000845131
0.00118728
-0.00142766
-0.000791996
0.00170736
0.000830263
0.000495077
0.00034185
-0.000480063
0.0011236
-0.000686956
-0.00126028
0.000426147
6.35957e-05
-0.000587015
0.000398688
-0.000389151
-0.00101123
0.000914439
-0.00187838
-0.000778654
0.00214129
0.00063667
0.00103073
0.000128489
-0.000881552
-0.000211807
-0.000455517
-0.00119401
0.000415985
-0.00249104
-0.000692627
0.00255602
0.000380322
0.00157766
-0.000199543
-0.00134237
-0.00076536
-0.000373885
-0.00113517
-0.000632002
-0.00262291
-0.000466471
-0.00221163
-0.00013472
-0.0013912
-0.000610417
-0.000209744
-0.000649104
0.000233708
-0.00034444
-0.000631222
0.000807304
-0.00145819
-0.000306202
0.000308243
-0.000193647
-0.000538831
0.00301601
-0.0016126
-0.000369971
-0.00122677
0.00260973
-0.000421706
0.00040753
0.00135841
0.00102511
0.000614836
-0.000388518
-0.000996653
-0.00166693
-6.18561e-05
0.00408402
-0.000756065
-0.000718413
-0.00262218
0.00153209
-0.000692437
0.00260493
-0.000627908
-0.00357464
0.001572
0.00245803
-0.00310364
-0.000435967
0.0036465
0.0013539
0.00434228
0.000780911
-0.000152995
-0.00132344
0.00351967
0.00206371
-2.57913e-05
-0.00121563
0.00133858
0.00278531
0.00232244
-0.00292748
0.00271364
-0.00163949
0.000463913
-0.000199824
0.0058596
-0.00304946
-0.000459768
0.000362911
0.00801867
-0.00382985
0.00313169
-0.00146209
0.0141096
-0.00969708
0.00589322
-0.00228822
-0.007922
0.013143
-0.00380761
-0.00596352
-0.00842714
-0.00169956
-0.00563149
-0.00484341
-0.0011595
0.00448612
-0.00421814
-0.00540972
-0.000490717
-0.00485299
-0.00086313
-0.00458081
-0.00319988
-0.00114706
-0.00405119
-0.00402421
-0.000378423
-0.00398354
-0.00309974
7.94646e-05
-0.00194771
-0.000643618
0.00115997
-0.00255319
0.000963544
-0.00164559
-0.00155024
0.000283979
0.00320521
-0.00179036
-0.00109626
-0.00297339
-0.000295651
-0.000802837
-0.00178007
-0.000602755
-0.00103496
-0.00164286
0.000315746
0.0016477
-0.00179573
-0.000598797
-0.000289913
-0.000304807
-0.000350524
0.00142287
-0.00132977
-0.000686953
0.000287709
-0.000742428
0.000362462
0.00195472
-0.00199503
-0.000538153
-0.000164386
-0.00064555
-0.000374973
0.00125033
-0.000198254
-0.00158456
-0.000113453
0.000788071
-0.000143402
4.95379e-05
0.0013187
-0.000214726
-0.00106077
0.00110406
-0.000384148
-0.000480865
0.000537496
-0.000322657
-0.000224847
9.55516e-05
-0.000429337
-0.000853599
0.00224715
-0.000575591
-0.000380348
-0.00119646
0.00439287
-0.000523901
-0.00162405
0.00385336
-0.000504376
0.000625013
0.00210769
-0.000561822
0.000582909
0.00172321
-0.000892711
-0.00161405
-0.0010042
-0.00424076
0.000595176
-0.00264063
-0.00162844
-0.00370116
-0.00150918
-0.00218835
0.000607211
0.00254912
-0.00298497
-0.000387753
-0.00082072
-0.00187235
0.00236242
-0.00326673
0.000563407
-0.00170111
-0.00062752
0.00204556
-0.00245979
-0.00160268
-0.000393135
-0.000733916
0.00192158
-0.00286807
-0.00141614
-0.000262251
0.000404683
-0.00217682
-0.00126215
-0.000151179
-0.000774008
-0.00264715
-0.00109247
-0.000124239
0.000381706
-0.00207103
-0.00100708
-9.18029e-05
-0.000672998
-0.00256822
-0.000853547
-0.000122496
0.00041579
-0.00171042
-0.000435606
-0.000785883
-0.000154571
0.000397687
-0.000638877
-0.000536797
0.000153602
-0.000754473
-0.00173807
-0.00967537
-0.00169782
-0.000889281
0.00986018
0.00094904
0.00429461
-8.53695e-05
0.00208105
-0.00116098
-0.000218604
0.00197652
-0.000707695
-0.00236171
0.00220125
-0.000429575
-5.58156e-06
0.000375817
7.06621e-05
-0.000281529
0.000324603
7.71409e-05
-5.28809e-06
-0.002944
8.0187e-05
0.00286198
-0.00151795
0.00173417
-3.2655e-05
-0.00128179
-2.86272e-05
-7.83361e-05
-0.00107425
-3.68014e-05
-7.78819e-05
-0.000966876
-4.25909e-05
-4.96925e-05
-0.00109311
-3.07464e-05
4.79915e-05
-0.00148482
-1.04702e-05
0.000186937
-0.00187997
-2.73963e-06
0.000176587
-0.0019085
-1.77936e-06
-2.40225e-05
-0.00156892
3.35945e-06
-0.000225464
-0.00120079
1.13185e-05
-0.000201544
-0.00102806
2.00317e-05
-0.000117541
-0.00100116
2.20784e-05
-2.48751e-05
-0.000737779
1.29209e-05
-0.000105098
-0.000369163
1.62362e-07
-6.43025e-05
-0.00016038
-2.87343e-06
9.86535e-05
-2.77183e-05
7.7301e-06
4.44921e-05
9.86989e-06
5.65008e-06
-4.25775e-05
4.05404e-05
4.98769e-06
-6.81754e-07
-3.82684e-05
-2.35212e-05
1.01383e-05
-3.9889e-05
-2.64342e-05
-2.81537e-05
-6.40074e-05
-3.57981e-05
5.21402e-05
-2.20805e-05
-4.2728e-05
-1.16468e-05
-4.40657e-05
4.66355e-05
-3.62166e-05
8.83866e-05
2.49636e-05
-4.67255e-05
-7.26681e-05
0.000338434
0.000117328
-0.000129503
-8.1256e-05
0.000494402
0.00029137
-0.000145574
-8.9484e-05
0.000589853
0.000184106
-5.35523e-07
-9.92576e-05
0.000793891
-0.000353102
0.000350971
-3.40129e-06
0.000983066
-0.0006089
0.000511203
6.97901e-05
0.0011202
-0.000389682
0.000397123
-4.44781e-05
0.0011533
3.57043e-06
0.000169307
-0.000148526
0.00118962
0.000102669
8.28206e-05
-0.000188984
0.001274
-2.28785e-05
9.45482e-05
-0.00013614
0.00139825
-0.000165808
0.000113469
-5.94601e-05
0.00153941
-0.000145503
5.64865e-05
-4.42092e-05
0.0016335
4.73538e-05
-6.99323e-05
-6.66893e-05
0.00167746
0.000273254
-0.000208721
-0.00010561
0.00165549
0.00045549
-0.00032245
-0.000109619
0.00159833
0.000556453
-0.000394069
-0.000104871
0.00151681
0.000579999
-0.000425507
-7.32678e-05
0.00142983
0.000553797
-0.000435831
-3.1498e-05
0.00132506
0.000551418
-0.000448773
1.6062e-06
0.00118541
0.000615317
-0.000475739
-1.05124e-06
0.00110696
0.000592712
-0.000517516
2.81486e-06
0.00106801
0.000602824
-0.00057423
9.88528e-06
0.00103316
0.000655233
-0.000638063
1.69571e-05
0.000964798
0.000706545
-0.000679843
4.08818e-05
0.000926644
0.000631276
-0.000701816
0.000107976
0.000359222
-0.000503233
-9.44867e-06
0.000990764
-0.0013505
-0.000903597
0.00162204
0.00174165
-0.00239531
0.00166438
-2.14493e-05
0.00182787
-0.00229723
0.00189051
0.000318987
0.00191497
-0.00254422
0.0020178
0.00043803
0.00153816
-0.00289206
8.05642e-05
0.0013417
-0.0030879
-2.00448e-06
0.000503502
-0.00240597
-6.35038e-05
-0.0030351
-0.00115108
-0.00645688
0.00423666
0.00487795
-0.00445847
-0.0124925
-0.00470103
-0.00622888
0.00327897
-0.00431382
-0.00252394
-0.0063817
0.00494243
0.000801922
-0.00451971
-0.00129303
-0.0044995
-0.00118833
-0.00417622
0.00445128
-0.000942378
-0.00596207
-0.00014931
-0.00324926
-0.000179291
0.00514818
-0.00347882
-0.00295021
-0.00136404
0.00129676
0.000853284
-0.00431793
-0.00111914
0.000226987
0.0015497
0.00094965
-0.00172243
-0.00395838
0.00407557
0.00416123
-0.00495675
0.00213295
-0.000827373
-0.000767917
0.00203395
0.000197551
-6.05277e-05
-4.91338e-05
0.000259038
6.61854e-05
4.52775e-05
-5.87773e-05
-0.000174289
0.000132909
0.000152833
0.000212862
0.000107348
3.91498e-06
0.000201536
0.000133184
-6.03349e-05
0.00040778
0.000174559
-0.000153905
-9.71193e-05
0.000631132
-2.30476e-06
9.40951e-05
-9.29649e-05
-0.000407695
0.000427516
0.000308901
0.000423713
-0.000232069
1.45629e-05
-5.23242e-05
-5.04207e-05
7.76335e-05
6.5674e-06
4.29906e-05
1.86303e-05
5.29112e-05
-1.71617e-05
0.000155762
-4.37865e-05
0.000633278
-8.43239e-05
0.00101106
-0.000113353
0.000143836
-0.000139107
0.00129837
-0.000263715
0.000184978
-1.38864e-06
0.00150705
-0.000331081
0.000266799
-1.64584e-05
0.0012863
-0.00035329
0.000590793
5.66839e-05
-0.00107749
0.000843182
0.000563612
0.00098802
-0.00106987
-7.61233e-05
-0.000228536
-0.00091923
-0.000164571
-0.000225096
-0.000743085
-0.000123246
-0.000180635
-5.73488e-05
-0.000191159
0.000538012
-8.59167e-05
0.000728605
-3.01916e-05
0.000881709
-3.08571e-05
0.0012685
-8.3157e-05
0.00172319
-0.000132678
0.000465185
0.00189924
0.000321753
-0.000306705
-0.000156069
0.00208297
0.000262956
-0.000172855
-0.000253277
0.00210185
0.000226735
-0.000257629
2.36256e-05
0.00214791
0.000142778
-0.000404506
0.000222162
0.00181392
-0.000142183
0.000377154
0.000102326
0.00134667
-5.34847e-05
0.000233979
0.000288006
0.00116885
4.18904e-05
-3.37121e-05
0.000170033
0.000769108
0.000310741
-7.60564e-05
0.000165036
0.00159664
-0.0011092
-0.000949391
0.00123099
0.001604
-0.000602939
0.000313056
0.000282083
0.00133948
-0.000398162
0.000242348
0.000419948
0.000495945
0.000678666
0.000210218
-4.58905e-05
0.00094181
-0.000540122
-0.000818118
0.000911742
0.00101154
-0.000699875
0.000261129
0.000369583
0.000342463
0.000681675
0.000139905
-0.000152543
0.000728087
-0.000466979
-0.000753263
0.00083492
0.000896454
-0.000716431
0.000124402
0.000423722
0.000317477
0.000676603
5.97442e-05
-0.000157574
0.000722982
-0.000508118
-0.000727491
0.00082999
0.000876861
-0.000654185
0.000112946
0.00038709
0.000353848
0.000555112
8.13334e-05
-0.000113684
0.00074697
0.000647109
-0.000415927
-0.000624429
0.000368968
0.000589001
3.99965e-05
-0.000251242
0.00080145
0.000725714
-0.000434423
-0.000723831
0.000391329
0.00064898
4.62983e-05
-0.000285296
0.000833781
0.000784918
-0.000454102
-0.000773271
0.000394643
0.000702018
4.93105e-05
-0.000312295
0.000803863
0.000821798
-0.000442028
-0.000788982
0.000343956
0.000735329
4.36507e-05
-0.000319124
0.000493231
0.000897538
-0.000342709
-0.000704032
0.000968578
-0.00123525
-0.00070462
0.00146473
0.000702785
0.000424272
0.000254111
-0.00041257
0.000896623
0.00144493
-0.000615574
-0.00102309
0.000330806
0.00103366
-9.15398e-06
-0.000458697
0.000326471
0.00114749
-0.000360046
-0.000783015
0.000754299
-0.00141442
-0.000710454
0.00169704
0.00055339
9.34827e-05
-0.000616472
0.000723951
5.29363e-05
0.00185622
-0.000443801
-0.000911812
0.000507709
-0.0016874
-0.000703123
0.00193575
0.00037989
0.00106985
-0.000120289
-0.000821691
-0.000680971
0.00215668
-0.000308603
-0.000787068
-0.000925199
-0.00128009
-0.000209481
0.001734
-0.000238975
-0.00176038
-0.000250097
0.0013243
-0.000134128
0.00116947
-0.00041153