/*--------------------------------*- C++ -*----------------------------------*\
  =========                 |
  \\      /  F ield         | OpenFOAM: The Open Source CFD Toolbox
   \\    /   O peration     | Website:  https://openfoam.org
    \\  /    A nd           | Version:  7
     \\/     M anipulation  |
\*---------------------------------------------------------------------------*/
FoamFile
{
    version     2.0;
    format      ascii;
    class       volScalarField;
    location    "18.8";
    object      p;
}
// * * * * * * * * * * * * * * * * * * * * * * * * * * * * * * * * * * * * * //

dimensions      [1 -1 -2 0 0 0 0];

internalField   nonuniform List<scalar> 
15284
(
13777.8
12574.7
11459.2
10264.4
9143.84
7963.22
6879.79
5734.3
4685.24
3621.31
2730.02
1883.13
1214.35
695.986
358.097
148.955
669.068
1147.27
1773.53
2264.19
1824.42
1254.2
966.03
903.288
722.213
626
648.751
545.3
543.537
717.418
899.698
953.864
1245.82
1814.13
2250.79
2705.89
13784
12577.4
11462.6
10264.8
9144.77
7961.61
6879.02
5732.04
4683.3
3619.27
2728.24
1881.7
1218.59
698.884
360.634
149.206
134.386
229.771
349.01
666.176
1138.01
1813.71
2611.76
3205.66
2725.44
2856.13
3701.28
4700.98
5765.12
6873.4
8008.71
9147.61
10275.7
11384.9
12388.6
13168.8
13938.3
15049
16188.3
17129.4
17960.9
18756.1
19773.2
20529.1
21234.8
22181.6
22937.8
23606.8
24450
25196.4
25827.2
26522.2
27111.2
27764.1
28330.8
28963.8
29507.7
30119.2
30658.4
31281.1
31823
32453.1
32954.6
33551.2
33852.6
34382.4
35051.6
35663.5
36383.9
36797.1
37497.5
38266.3
38864.9
39422.4
39419
39211.8
39176.1
39089.5
39056.2
39298.6
39479.9
39697.7
39178.6
16106
14888.8
13752.9
12546.1
11431.7
10235.3
9118.12
7938.05
6857.97
5714.25
4668.35
3607.59
2719.46
1876.03
1214.92
696.765
360.376
149.451
143.959
322.099
493.418
352.451
377.369
679.882
1153.1
1816.06
2672.46
3625.66
4631.17
5648
6338.24
5646.46
4661.99
3759.72
3818.37
4709.39
5783.15
6877.8
8011.13
9139.28
10280.6
11277.7
11998.9
12760.1
13877.8
15019.5
16071.4
16883.5
17651.2
18688.2
19627.1
20415.8
21150.9
22061.6
22828.9
23580.2
24428.8
25143.8
25704.2
26413.4
26983.2
27665.1
28232.7
28871.6
29412.7
30029.8
30564.8
31201.6
31719.5
32322.1
32615.8
33131.8
33746.5
34290.2
34933.2
35270.8
35877.1
36663.5
37374.1
38192.7
38802.9
39053.5
38517.9
38453.9
38185.1
38052.5
38031.5
37774.3
37652.2
38021.9
37901.6
37118
20599.5
21311.7
24433.8
25317.2
20254.9
17804.7
15543.3
13138
10901.9
8524.46
6351.58
4126.89
2351.32
966.732
267.26
-9.20434
131.063
227.706
133.397
148.217
343.76
667.666
1140.65
1763.42
2243.72
1755.57
1149.44
716.311
725.419
1164.09
1841.64
2671.04
3614.67
4637.61
5753.03
6880.99
8035.86
9199.82
10392.9
11546.7
12698.8
13819.9
14863.9
15576.8
16320.1
17406.3
18381.7
19199.6
19990.7
20977.9
21678.1
22338.8
23191.8
23944.1
24556.3
25305.7
25986.9
26641.3
27207.5
27815.1
28384.7
28974
29518.3
30081.2
30585.8
31208.8
31745.7
32337.9
32604.9
33101.6
33721
34272.1
34928.4
35292.6
35925.9
36767.4
37410.3
38169.8
38266.9
37128.6
37517
37529.2
36975.7
36612.5
36241.3
36117.6
36292.9
36578
36331.5
36236.8
36144.2
34987.9
33699.1
32437.4
31170.2
28568.6
27261.1
25912.6
19513.3
19470
20546
20540.1
21281.8
22045.6
23249.9
23137.7
24072.2
24676.4
24920.6
26120.5
27039.3
27542.7
28054.1
21969.2
20807.3
19568.5
18435.3
17242.5
15495.8
14906.6
13184.7
12531.7
11402.2
10235.5
9111.89
7959.08
6854.42
5731.02
4672.3
3626.73
2699.17
1851.06
1180.05
673.58
354.71
162.135
41.066
25.0833
27.177
90.7683
180.955
368.479
687.695
1178.51
1861.26
2695.84
3636.49
4661.48
5737.36
6844.32
7969.29
9101.86
10240.4
11382.3
12524.7
13664.6
14794.7
15854.2
16548.4
17305.3
18421.4
19568.6
20723.2
21875.7
22970.5
23682.8
24454.8
25676.3
26900.2
27987.2
28633.3
29355.9
30522.3
88.8874
148.614
336.747
638.986
893.113
636.79
360.181
368.029
675.953
1154.37
1835.84
2658.07
3590.52
4575.13
5251.02
4562.82
3608.67
2764.85
2782.89
3629.32
4675.98
5771.93
6896.75
8028.1
9188.04
10360.6
11539.6
12570.7
13279.6
14003.1
15100.4
16228.3
17284.1
18048.2
18785.5
19790.6
20557.2
21246.6
22187.6
22903.9
23555.9
24407.8
25173.8
25757.4
26479.5
27020
27694.9
28207.8
28853.9
29342.6
29963.2
30436.8
31047.6
31364.8
31869.3
32451.8
32921.3
33518.2
33813.7
34339.7
35020.1
35420.2
36110.6
37003.7
37886.4
38272.8
38292.6
38307.1
37385.1
37160.8
35475.9
35449.7
35279
35217.6
36327.2
35077.1
33436.9
33654.8
33809.4
33804.3
33689.8
33327.1
32947.5
33097.9
33355.7
33500.5
33674.6
32360.4
31067.7
29837.2
29870.4
28565
27256.8
25992.9
25203.3
24425.3
24423.2
24592.1
18367.1
18336.7
18291.5
19430.4
19552.3
20572.6
20706.3
21905.5
21884.5
22978.9
23968
24925.3
26086.1
26910.4
27005.8
27132
27673.6
28392.6
29013.6
28202.2
26979.8
25719.2
24430.9
23211.7
21949.5
20790.7
19559.3
18426.4
17200.5
16089.3
14892.3
15464.1
14909.2
14902
14833
13690.1
13677.4
13664.9
12522.8
11379.9
10237.5
9098.6
7966.53
6842.17
5734.8
4659.8
3636.05
2694.5
1858.48
1173.96
680.17
361.411
163.452
35.0785
-41.6107
-47.2604
-37.1635
-28.3269
-32.8778
43.4939
156.973
350.391
687.224
1186.13
1867.58
2702.49
3647.02
4674.45
5751.19
6858.21
7983.86
9119.72
10263.3
11410.1
12559.7
13711.5
14868.4
16037.8
17215.1
18390.3
19552.4
20707.4
21858.1
23025.9
24140.9
24864.7
25607
26750.3
27957.1
29203.6
30508.6
31783.8
32783.2
14454
13224.9
11023.7
8572.2
6419.28
4138.16
2371.66
977.442
24.909
135.21
237.828
130.317
150.282
341.344
641.794
886.986
631.198
339.655
162.333
163.21
342.726
676.991
1169.01
1840.35
2633.92
3530.09
4166.03
3517.19
2629.12
1844.29
1232.23
1236.37
1845.04
2641.87
3616.11
4694.47
5805.64
6920.2
8031.94
9179.03
10364.4
11576.7
12758.9
13796.1
14503.4
15213.1
16313.5
17358.3
18147.5
18875.4
19884.5
20637.1
21327.1
22290.8
22999.7
23638.5
24487.5
25213.6
25772
26467.4
26999.1
27660.1
28161.8
28789
29262.8
29856.5
30160.3
30673.8
31262.1
31718.7
32265.3
32506.1
32977.2
33564.4
33840.2
34380.9
35121.6
35435.8
35754.9
36489.8
37419.2
37697.2
37779.8
37901.4
38034.4
38096.3
38037.6
37795.4
36856.2
37115
36998
37430.2
37600.7
37575.3
37340
36879.9
36483.9
36144.8
36136.1
22473
21887.8
20763.8
19553
18420.9
17217.2
16100.6
14897.5
13768.5
12573.1
11464.4
10273.9
9156.28
7976.08
6894.27
5746.4
4696.3
3628.45
2738.23
1882.6
1215.35
693.742
357.194
154.603
41.6172
-31.4594
-49.1886
-15.1426
17.1066
77.2274
15.7493
28.7446
28.647
-66.5863
-38.4105
32.6008
148.932
342.514
650.464
906.848
635.136
337.35
151.896
39.6025
42.1579
157.614
346.817
661.899
1125.81
1502.17
1100.96
656.018
349.248
171.276
165.619
355.251
671.023
1152.25
1796.81
2289.57
1772.48
1144.99
681.946
379.229
371.853
679.538
1155.32
1856.44
2693.24
3624.23
4606.66
5279.79
4586.07
3597.93
2666.42
1853.77
1232.01
1240.26
1851.22
2650.52
3616.62
4707.32
5824.8
6935.69
8046.41
9189.43
10380
11602.7
12774.3
13812.6
14520.3
15249.9
16365.5
17443.9
18175
18894.6
19909.1
20656.8
21341.3
22310.3
23012.2
23569.9
24204.2
24785.4
25438.9
26037.1
26644.5
27214.8
27819.3
28359.5
28908.8
29342.7
29937.7
30218.9
30734.5
31243
31418.3
31926.2
32416.6
32557.8
33026.1
33599
33732.2
33830.1
34271.4
34746.4
34821
34877.8
34898.3
34876.8
34823.5
34342.5
34550.4
34490.9
34684.5
34815.9
34628.4
34729.2
34760.7
34771.2
34724.4
34640.9
34532
34410.8
34533
34438.4
34320.2
-69.1608
-67.8892
-70.0555
151.955
157.904
153.878
162.876
353.76
351.061
155.237
147.148
349.046
363.827
355.247
154.032
357.203
370.983
344.893
152.386
152.728
145.693
143.627
148.761
150.808
150.095
268.355
344.926
929.564
341.056
351.251
350.992
373.889
360.865
150.748
169.352
361.791
359.921
160.346
30.1795
-4.53553
29.1752
30.2185
35.1212
-41.055
-33.4123
-35.61
-37.4082
34.2517
147.297
322.867
490.706
323.925
148.469
35.5324
36.0986
158.303
157.991
160.976
42.7626
354.529
361.113
356.176
354.213
159.72
33.3605
-38.4533
-51.9013
-13.1648
-51.0987
-44.7139
16.4157
77.2258
17.241
-45.1691
-42.9673
-43.7468
-43.8948
-35.1869
-38.1101
29.2713
39.2272
152.847
340.609
639.722
915.633
652.07
343.317
149.097
156.032
34.8978
31.9464
39.1238
36.9405
156.257
172.417
358.237
671.141
1122.42
1521.67
1140.69
673.376
349.585
359.341
162.432
155.974
363.269
355.276
696.404
748.143
739.42
1213.34
1894.54
2724
3672.86
4711.92
5813.01
6952.91
8116.32
9289.98
10464.9
11633.2
12792.9
13959.9
15056.9
15817.4
16534.7
17549
18243.9
18939.7
19968.3
20654.7
21277.5
21898.9
22456.1
23076.7
23621.3
24234
24801.2
25396.8
25907.9
26481.4
26644.1
27151.6
27691.1
27806.9
28268.2
28757.9
28831.1
28914.5
28974.1
29363.2
29774.6
29760.2
29762.5
29781.6
29373.2
29527.7
29459.3
29378.7
29275.1
29419.8
29505.2
29342.6
29451.8
29507.5
29283.6
29300.3
29332.3
29364.6
29383.6
29386.6
29367.3
29339.3
29308
29296.5
29525.5
29470.2
29363.3
29528.7
19079.9
17819.7
17248.5
16137.3
14937.4
13813.8
12619.3
11509.7
10314.7
9192.79
8006.13
6919.38
5764.44
4709.3
3638.23
2743.45
1893.23
1226.9
707.562
367.897
152.23
-43.1435
-37.7828
25.5244
135.413
242.851
139.523
24.8044
28.8755
-41.7846
-42.7104
-7.61545
-42.9207
-37.9727
-39.8939
-46.9527
-43.19
21.3818
87.5499
19.6809
30.5427
156.532
172.66
361.212
666.918
937.204
672.541
359.953
390.85
393.472
704.35
1175.86
1804.98
2314.88
1821.62
1177.86
689.526
367.756
172.247
171.223
154.273
371.825
369.35
364.711
162.114
28.6391
27.7139
-5.06922
-46.7665
28.8069
26.7082
152.541
267.335
153.743
159.479
260.959
366.022
375.84
367.334
707.562
702.197
692.521
688.332
1202.11
1216.34
1244.8
1219.8
1278.17
1910.96
2734.9
3682.21
4720.74
5821.82
6962.43
8126.33
9300.18
10474.3
11639.6
12784.7
13852.6
14585.3
15352.4
16487.3
17529.9
18244.4
18868.9
19510.3
20194.8
21204.1
21867.3
22450.5
23057.1
23617.3
24196.6
24718.9
25247.6
25404
25931.4
26499.6
26658.4
27146.5
27595
27657.5
27750.2
27828.6
28240
28660.9
28642.3
28644.2
28667.5
28249.1
28398.9
28315.4
28228.9
28130.4
28296.6
28393.9
28227.2
28343.3
28404.5
28193.7
28272.9
28314.2
28360
28402.2
28429.4
28428.4
28406
28362.8
28321
28278.7
28202.4
28416.4
28354.8
28240.5
28409.7
27259.2
26738.8
25004.1
24410.6
23196.5
21929.1
20757.8
19559.1
18405.8
17214.6
16068.6
16066.6
16012.6
15985.7
15984.1
14807.7
14809.3
13665.1
12522.4
11379.1
10236.3
9097.79
7966.75
6842.4
5734.47
4659.33
3635.6
2694.13
1858.49
1174.12
680.025
361.009
163.351
34.6939
-41.2215
-83.7005
-95.5524
-96.2073
-92.9546
-83.3545
-37.0696
-37.2748
-38.3903
-46.5368
-84.9648
-92.879
-101.677
-106.42
-106.287
-95.306
-79.694
-39.0041
35.513
94.93
181.678
352.612
681.57
1180.57
1859.92
2689.38
3631.07
4654.49
5729.09
6833.81
7957.93
9092.65
10236.7
11386.1
12539.1
13691.7
14838.9
15974.2
17092.5
18125.2
18826
18136.6
17089.8
15966.8
14831.9
13685.7
12534.8
11383.6
10236.4
9092.83
7958.38
6833.82
5727.64
4651.7
3628.11
2688.35
1858.34
1175.57
679.959
356.674
184.106
172.621
362.074
678.51
1172.15
1856.89
2691.36
3630.52
4653.48
5729.46
6837.51
7961.74
9093.73
10235.8
11383.8
12534.8
13685.8
14832.6
15971.7
17108.8
18276.2
19471.9
20702.1
21885.6
22981.7
23971.4
24929.1
26091.3
26915.6
27011.4
26676.8
26670.3
26835.2
27418.1
28242
28831.2
28111.8
27065.9
25837
24529.9
24456.9
23142.6
21913.1
20735.6
19572.2
18418.4
17289.9
17193.5
17194.9
15984.9
15854.2
14793.7
13663.2
12522.8
11380.3
10237.8
9098.28
7965.73
6841.7
5735.23
4659.98
3635.43
2694.86
1860.94
1178.52
688.068
368.474
181.205
91.4868
25.2547
27.5381
-37.0577
-71.8161
-89.6615
-103.615
-108.654
-110.099
-109.959
-107.611
-103.802
-91.7127
-72.3483
-32.0528
46.388
166.532
354.552
687.894
1181.21
1859.2
2689.29
3627.25
4654.22
5728.53
6833.54
7958.08
9093.29
10238.2
11387.4
12542.2
13697.4
14849.4
15993.6
17131.6
18279.8
19423.9
20537.6
21290
20572.4
19546
19559.8
20707.1
21912
23146.1
24084.4
24935.3
26137.6
27061.8
27158.6
26860.3
25851.6
25728
25723.8
25834.2
25720.1
24413.2
23152.5
21931.2
20737.9
19561
18388.4
17202.4
17161.3
17162.9
15985.1
14827.3
13676.1
12529.2
11383.1
10238.3
9096.49
7963.38
6840.65
5734.84
4661.39
3634.27
2693.31
1858.35
1177.15
681.892
359.585
170.584
46.643
41.2531
41.2545
-37.8328
-86.8927
-86.6548
-105.213
-108.247
-113.393
-114.579
-114.84
-113.172
-114.722
-111.792
-105.936
-87.7328
-66.4499
-28.4069
48.1585
168.903
356.651
688.774
1183.96
1863.5
2690.69
3629.54
4653.51
5728.24
6832.72
7957.52
9094.53
10241.5
11394.5
12552.5
13713.1
14873.4
16029.6
17186.8
18348.4
19498.4
20590.1
21312.3
20540.1
19458.1
18321.4
17165
16012
14860.3
13703.7
12546
11389.8
10238.6
9092.75
7956.78
6832.57
5728.3
4653.89
3630.21
2691.51
1862.74
1183.66
687.995
354.492
164.862
45.9167
-31.8936
-31.3104
-36.3485
158.957
158.269
163.586
163.495
357.893
360.885
361.575
360.007
702.347
704.94
699.426
693.554
1188.14
1193.71
1199.06
1199.13
1869.84
1871
1869.91
1867.93
2692.99
2692
2690.86
2688.71
3624.79
3627.62
3629.25
3630.6
4653.26
4651.26
4649.14
4646.04
5720.21
5723.42
5725.6
5727.28
6831.81
6829.86
6827.96
6825.25
7952.76
7954.46
7955.66
7956.65
9094.85
9093.9
9092.74
9092.62
10241.8
10242.1
11396.8
11397.4
12560.1
12556.5
13720
13724.7
14892.5
14883.5
16044.8
16057.6
16048.9
17207.9
17182.6
17144.8
17101.1
18132.5
18830.2
19561.6
19472
20700.2
20696.2
19475.9
18301.5
18277.1
17111.3
15973.6
14834.2
13687.4
12536.6
11385.9
10238.5
9096.08
7962.52
6837.95
5730.23
4654.39
3631.39
2692.04
1857.52
1172.57
679.173
361.899
172.127
41.2849
41.0913
-37.486
-79.3418
-95.9463
-107.662
-108.051
-108.227
-108.267
-96.1044
-79.4142
-36.9532
-39.3469
34.9441
93.83
181.518
354.073
683.726
1182.75
1862.11
2692.47
3635.21
4659.77
5735.44
6841.44
7966.34
9101.76
10246.8
11395.8
12548.4
13700.6
14847.8
15982.5
15972.4
17095
18142
18205.4
17105.9
15989.3
14831.7
14835.7
13690.7
12539.7
11387.8
10241.3
9098.41
7964.07
6838.74
5731.62
4654.84
3630.46
2690
1859.67
1177.53
681.356
356.977
184.294
172.894
163.01
36.5752
-39.8544
-80.1057
-95.685
-106.568
-106.837
-102.174
-85.0898
-90.3666
-88.1704
-72.7789
-33.4412
-36.0574
-84.6923
-105.92
-111.264
-95.8681
-107.255
-106.987
-108.706
-103.827
-108.967
-110.404
-110.325
-107.47
-103.224
-91.2609
-72.8674
-31.85
46.8332
166.836
354.962
688.803
1182.8
1861.82
2693.5
3633.27
4662.02
5737.98
6844.81
7970.29
9106.41
10252.1
11401.7
12556.6
13711.5
14863
16006.5
16029.2
14878.2
13722.5
12565.3
11409
10257.1
9110.14
7972.58
6846.83
5740.42
4663.88
3637.98
2697.01
1866.15
1185.29
688.905
354.744
165.361
47.0254
-31.3902
-66.758
-28.6689
48.1711
169.241
356.683
689.322
1185.8
1867.42
2696.92
3638.48
4665.17
5742.39
6849.02
7975.6
9114.25
10262.8
11416.3
12574.5
13733.7
14890.5
13744.1
12582.6
11422.1
10266.8
9117.15
7977.38
6850.08
5743.32
4666.45
3641.06
2700.18
1872.78
1190.72
694.864
358.064
163.277
160.467
356.901
699.033
1196.9
1878.86
2709.67
3653.93
4682.66
5762.22
6871.08
7999.32
9138.54
10285.1
11435.6
12589.7
13745.5
14904.6
16066.2
17229.6
18392.4
19553.8
20713.6
21874
23038
24234.1
25456.2
26693.5
27920
29187.4
30516.6
31905.9
32966
33939.4
35464
37043.7
38321
39003.5
38987.5
38542.6
37804.1
37025.2
37048.9
37739.9
37839.6
38124.1
38088.4
38144.8
38022.3
38120.3
38426.5
38902.1
38683.5
39075.6
38969.6
38756.1
39001.3
38443.2
38230.9
38215.2
38572.8
38541
38281.4
37990.9
38010.6
37942
37910.2
37981
38142
38372.2
38216
38175
37961.5
38152.7
38358.6
38404.8
38874.6
38912.5
38791.3
38805.4
38838.2
38797.1
38920.1
39217.5
39220.2
39144.5
38562.8
38988
38890.7
37405.8
35351.7
35446.8
33639.2
33666.3
33646.9
32010.8
32028.7
31907.1
31810
31823.6
31941.9
31829.2
31627.1
31715.6
32049.1
32619.4
32485.4
31715.7
30606.5
30733.8
30843.8
30952.2
29837.2
28692.8
28638.7
27922.1
27230.9
27151.7
25999.8
26070.8
25346.6
24693.2
24457.3
23267
23274.7
23286.8
23320.2
16061.1
14893.2
13725.8
12561.6
11400.9
10246.3
9096.82
7958.49
6833.07
5728.13
4652.96
3631.11
2697.1
1874.8
1200.05
701.189
356.033
158.029
13754.1
12589.4
11426.7
10269.7
9118.66
7977.82
6849.65
5742.7
4665.64
3640.64
2700.16
1875.42
1197.07
701.594
360.491
162.747
165.24
364.749
703.187
1200.74
1881.03
2710.61
3655.78
4685.84
5767.07
6877.89
8008.18
9149.46
10297.9
11449.7
12604.9
13761.2
14919.4
16078.4
17238.6
18398.4
19558
20717.4
21877.9
23044.4
24226.5
25425.7
26647.7
27891.6
29179.4
30536.6
32064.8
33785.2
35485.7
36619.1
37453.1
38548.5
39049.3
38841.1
38549.2
38453.1
38101.3
37714.9
36566.3
35196.2
32863
31985.9
30385.5
29016.4
27833.2
26586.4
25442.9
24216.8
23086.3
21880.6
20764.6
19554.8
18428.4
17226.4
16116
14914
13789.6
12592.2
11484.1
10289.9
9172.26
7987.53
6904.87
5752.53
4700.8
3630.56
2736.93
1885.67
1221.34
699.845
362.894
152.222
626.907
1761.06
9093.89
7955.09
6828.84
5723.64
4649
3628.43
2695.64
1876.35
1204.4
705.879
356.735
155.621
173.898
369.708
709.628
1209.68
1888.9
2718.79
3666.57
4702.16
5791.67
6911.41
8048.71
9195.37
10347.8
11502.6
12659
13815.4
14970.9
16124.9
17275.5
18422.1
19565.6
20708.9
21860.4
23014.8
24173.3
25334.9
26558
27746
28533.6
29328.7
30528.5
31899.6
33575.1
35442
37471.9
36936
38236.3
38068.2
38859.2
38957
39105.6
38647.6
38674.1
38509.9
38490.1
38377.9
38267.3
38439.5
36969.2
36947.7
35357.1
34245.2
33283.8
33564.2
31937.8
31994.2
32011.7
30563.5
30544
30542.5
30527.5
30533.4
30566.1
30476
30559.4
29551.7
29730.6
29794.8
28715.3
28101.5
27579.7
27337.7
26211.1
25913.1
24580
23274.8
21983.5
20762.7
19569.4
18391.8
17242.9
15487
14887.8
13177.6
12540.6
11427.2
10236.9
9131.98
7956.5
6871.33
5726.04
4686.66
3619.17
2710.87
1852.66
1198.02
685.231
357.221
157.361
41.4508
-35.4429
-84.078
-87.968
-106.551
-111.104
-113.931
-115.97
-116.201
-116.238
-116.461
166.296
369.011
708.094
1206.09
1884.31
2713.08
3659.05
4690.2
5773.84
6886.94
8019.26
9161.98
10311.4
11464
12619.7
13775.9
14933.4
16091
17249.1
18406.6
19564.5
20722.3
21881.1
23043.1
24210.3
25387.4
26622.1
27884.9
29182.5
30536.3
32066.6
33779.8
35636.7
37153.9
37916
38153
38216.3
37546.5
37488.9
37350.1
37094.2
36874.4
37125.5
37191.3
36829.9
37224.3
37172
37349.7
37110.8
36933
36923.1
37156.5
37335.6
37096.6
37093.3
36819.5
36956.5
37163
37361.1
37149.1
37125.2
37447
38048.8
37452.7
37158.5
36965.5
37174.8
37370.4
37461.4
37146.2
36886.8
37158
37142.5
37425.5
38041.5
37967.4
38219.4
38299.9
37479.9
35545.8
33663
31970.3
30547.6
29218.6
28030.9
27254.7
28017.9
29205.5
30543
32033.3
33740.7
35622.5
37201.2
37136.8
35654.6
33642.4
31868.6
30435.7
29154.4
27990.2
27814.5
26563.2
26453.2
25325.1
24176.7
23023.9
21869.9
20717.5
19566.9
18416.8
17265.7
16112.5
14957.7
13802.1
12646.3
11490.4
10336.3
9185.08
8039.51
6904.14
5786.93
4699.99
3665.22
2716.16
1887.65
1211.74
708.772
363.938
161.289
159.034
366.642
715.705
1211.45
1887.37
2715.28
3662.16
4694.76
5779.88
6895.39
8029.45
9174.08
10325.2
11478.8
12634.9
13791.2
14948.3
16104.8
17260.8
18415.4
19569.8
20724.6
21880.7
23037.7
24194.6
25349.8
26491.3
26583.5
25386.2
24219.8
23059
21899.8
20741
19581.8
18423.4
17266.7
16110.4
14953
13794.8
12638.5
11482.5
10328.4
9175.5
8030.49
6896.91
5781.25
4695.49
3664.37
2722.18
1894.2
1217.15
716.428
365.552
160.742
683.646
949.641
675.194
344.549
362.099
250.652
148.867
354.702
354.396
347.552
679.214
716.072
1187.78
1180.87
684.473
675.262
1181.05
1166.87
2293.8
1163.06
669.361
673.962
959.743
678.161
1189.47
1181.35
1204.97
679.284
955.274
682.953
349.09
146.487
245.989
339.685
339.769
267.709
123.499
269.935
130.13
128.755
126.576
-5.0819
-46.205
-37.9453
28.6146
22.4399
137.997
239.603
142.106
155.355
173.64
365.623
358.939
388.22
678.778
945.881
677.995
718.75
1222.25
1287.28
1899.47
2680.97
3573.27
4222.17
3580.69
2680.86
1891.07
1896.86
1288.74
1276.02
1897.21
2704.53
3639.39
4635.35
5331.83
4649.59
3660.56
2725.32
1893.83
1196.39
710.03
723.116
388.69
366.474
159.066
31.4212
30.5224
30.1208
-46.2675
-43.238
29.7248
27.8718
-44.1073
-40.1271
-43.6066
29.8741
31.7124
163.381
173.011
376.188
375.752
376.627
155.73
158.205
29.0353
-44.7728
-44.4906
-43.0519
-4.46648
30.7268
32.448
156.69
155.927
154.297
153.217
363.378
373.946
370.116
160.281
157.063
363.383
962.15
363.828
270.833
368.002
270.005
362.786
154.778
251.494
144.518
150.375
154.405
159.841
160.87
157.245
381.143
372.833
353.074
384.303
544.948
773.335
1217.2
1824.33
2307.78
1825.65
1205.14
722.568
725.138
397.504
390.044
730.358
715.382
719.331
727.412
1240.97
1271.26
1908.13
1895.91
2728.25
2724.01
2691.43
3662.54
4763.47
4881.89
5898.09
7010.56
8146.16
9286.79
10363
11079.3
11831.9
12921.5
13956.2
14647.6
15354.1
16335.1
16991.6
17591.1
18199.2
18771.1
19347.8
19511.3
20045.6
20563
20680.3
21176.2
21655.9
21690.5
21710
21711.7
21695.5
21664.5
21186.1
21385.5
21300.2
21223.8
21125.5
21254.7
21381.6
21200.4
21337.2
21445.5
21236.2
21348.1
21438.5
21240.1
21242
21220.7
21317.2
21298.3
21298.5
21294.1
21287.2
21297.9
21193.3
21206.6
21196.9
21389.5
21291.5
21172.7
21378
21264
21119.9
21300
22243.2
22402.6
21855.2
22526.1
22343.8
22470.8
21903.8
22571.3
22360.8
22455
21870.2
22442.6
22474.1
21918.8
22594.1
22603.7
21969
22607.4
22609.8
21975.6
22613.1
22609.2
21940.1
22496.3
22470.9
21906.1
22488.6
22401.6
22614.5
21956.7
22520.2
22399.7
22582.7
21924.3
22464.7
22311.1
22463.2
21814.8
22316
22096.3
22197.3
22316.5
22400.2
22436.4
22455.9
22454.5
22431.5
22391.9
22304.4
21373.1
21285.3
21205.5
20230.3
20127.9
19923.6
18928
18725.8
17713.9
17490.4
16450.1
15352
15215.3
14069.7
12920.9
11816.8
11714.1
10484.8
9286.53
8134.96
7014.51
5892.3
6018.8
6003.85
7022.84
8116.47
9161.21
9861.02
10619.3
11735.3
12867.9
13922.3
14632
15359
16359.9
17030
17639.8
18271.7
18875.4
19497.2
20079.1
20679
21231.4
21792.7
22295.8
22819.7
22934.4
23044.8
23506.5
23968.4
24016.3
24045.8
24047.1
24021.1
23976.7
23516.7
23711
23685.6
23515.7
23303.3
23516.1
23655.9
23500.6
23626.2
23727.3
23546.6
23655
23647.4
23661.5
23748.3
23563.8
23566.5
23566.8
23564.6
23559
23551.7
23732.3
23640.2
23622.1
23626
23512.1
23692.1
23586.4
23455.5
23611
24609.1
25355.6
25225.9
24462
24694.4
24153.3
24743.4
24540.7
24734.3
24207.9
24769
24825.5
24255.7
24837.9
24578.7
24714.3
24175.9
24709.9
24721.4
24177.6
24722.9
24714.9
24183.4
24722.6
24590.5
24850.9
24274.4
24841.3
24788.3
24233.9
24756.2
24567.4
24769.2
24186.9
24722.7
24496.2
24641.6
24040.8
24226.1
24751.1
24840.4
25499.8
25376.2
25249
25822.7
25965
26054
25835.1
25948.5
26004.7
26064.3
26093.6
25809.3
25855.4
25863.4
25862.8
25852.3
25805
26089.3
26057.6
25997.9
25939.1
25823.4
26044.6
25952.5
25807.5
26033.3
26683.4
26525.7
27064
27245
27845.8
27731.1
27189.7
26677.6
26516.2
27047
27263.7
27860.3
27702.4
27142.7
26646.6
27194.2
27245.1
26694.4
26459
26962.4
27263.6
27865.7
27586.2
26934.4
26456.6
26934.8
26962.8
26461.1
26697.3
27244.7
27262.5
27863.9
27585.6
27883.4
26889.5
25728.3
24493.7
23351.2
22139.5
20419.7
19879.6
18147.8
17554
16412.6
15161.9
14042.6
12818.1
11088.5
10468.4
9340.58
8126.28
7012.53
5830.47
4771.35
3688.67
2734.78
1874.45
9116.31
7935.83
6853.67
5710.45
4663.65
3606.05
2718.21
1878.57
1216.41
701.495
362.163
146.884
129.983
964.818
947.818
944.129
682.245
671.96
1186.68
1262.4
1308.5
1936.69
2733.08
3653.54
4667.44
5740.07
6850.26
7982.52
9124.23
10264.5
11393.2
12493.1
13532.4
14361.7
15146.4
16198.7
17284.1
18179.2
19008.5
19788.5
20724.9
21527.8
22287
23167.5
23911.2
24579.8
25341.8
26057.5
26870.6
27529.2
28040.6
28715.7
29221.2
29878.5
30359.1
30959.7
31387.6
32002.4
32639.6
33171.4
33774.1
34279.2
34850.6
35263
35904.9
36612.3
37232.8
38010.7
38697.3
39493.3
39635.7
39623.3
39729.8
39453.9
38655.7
38045.5
37206.1
36617.5
35874.8
35241.4
34833.4
34258.7
30551.1
29450.3
29050.8
28441.7
28280.4
27856.4
27235.1
27121.2
26657.2
25976.3
25271.8
24494.5
23858.1
23117.1
22241.6
21488.1
20688.3
19781.2
18776.2
18525.7
18022.1
17218.5
16194.3
15084.6
14237.1
13388.8
12459.1
11368.6
10249.2
9114.19
7975.43
6844.67
5736.46
4666.89
3659.81
2736.16
1950.53
1370.23
1280.17
1841.57
2294.84
1846.9
1909.35
1914.07
1909.43
1935.64
2735.92
3652.72
4664.41
5739.48
6853.11
7988
9132.13
10275.2
11408.8
12523.3
13603.9
14508.7
15366.8
16206.5
17269.2
18186.6
19026.9
19835
20758.4
21551.5
22313.6
23200.7
23942.9
24615.1
25365
26048.1
26867.8
27500.9
28054.1
28690.7
29234.7
29856
30381.1
30969.9
31397.1
32010.3
32639.9
33167.5
33766.3
34275.1
34848.4
35260.2
35905.3
36605.8
37230.2
37989.4
38677.6
39428.4
39542.4
39565.9
39387.8
39278.2
39512.1
39515.8
39406.6
39066.9
38586.4
38428.7
37867.3
37333.8
37124.5
36507.2
35758.8
35112.5
34701.9
34270.3
34139.8
33653.9
33039.3
32514.4
31893.4
31311.5
30691.7
30164.3
29587.3
29027.2
28423
27843.6
27229.4
26656.2
25981.5
25281.4
24509
23874.9
23404.8
23137
22265.2
21513.5
21028.2
20715.5
19811.9
18810.9
18058.5
17254.4
16231.8
15122.9
14273.2
13732.3
13423.2
12493.6
11402.2
10281.7
9144.6
8003.4
6870.25
5759.68
4686.78
3675.05
2746.48
1955.12
1377.22
1312.44
1944.44
2741.74
3661.92
4676.49
5751.48
6863.9
7998.14
9141.25
10283.1
11412.6
12513.4
13553.3
14384.7
15170.6
16220.5
17305.3
18198.5
19026.2
19806.2
20740.7
21542.4
22300.1
23178.6
23920.3
24587
25346.3
26059
26870
27524.4
28034.3
28704.4
29209
29859.4
30336.6
30927.5
31344.7
31948.7
32575
33100
33696.2
34198.8
34768.3
35183
35831.4
36542.4
37164.9
37899.8
38536.7
38629.5
37953.8
37205.6
36581.3
35880.6
35233.6
34820.7
34248.4
33739.6
33143.5
32617.5
31992.2
31381.9
30957.8
30372.8
29848.7
29230.1
28686.2
28051.6
27498.5
26867
26048.1
25365.6
24617.1
23945.7
23204.6
22318
21556.2
20763.8
19840.9
19032.8
18192.9
17276.4
16214.2
15373.1
14893.3
14515.7
13611.3
12530.3
11415.5
10281.9
9138.38
7993.93
6858.49
5744.56
4668.42
3656.51
2740.31
1938.96
1277.91
842.808
847.153
1278.35
1242.59
782.572
781.956
683.008
945.838
676.446
677.931
1199.96
1287.59
1268.77
1242.25
1196.34
1191.37
1869.95
1919.79
1916.08
1855.35
2305.29
1853.32
1194.01
1851.49
1850.85
1851.15
2699.09
2755.28
2689
1845.77
1171.4
684.97
680.701
671.217
679.135
686.703
1192.92
1227.15
1867.22
1851.33
2686.24
2686.17
2701.07
1866.27
1183.8
685.902
694.254
685.986
683.48
1176.48
1187.92
1179.43
1862.77
1845.62
1869.2
1964.16
1973.23
2754.67
3696.72
4719.87
5807.84
6938.77
8094.39
9259.93
10422.8
11574.8
12727.8
13815.6
14566
15306.7
16452.1
17488.3
18207.9
18918.4
19949.5
20635
21243.1
21924
22561.8
23517.8
24130.7
24675.6
25283.2
25808.3
26416
26652.2
27200
27762.3
28229.1
28772.8
28937.8
29414.5
29920.1
30027.3
30434.4
30961
31102.3
31165.4
31181.5
31201.1
31224.8
31227.5
31210.1
31194.9
31184.4
31126.1
30988.1
30465.6
30557.8
30424
30490.4
30566.1
30637.9
30693.9
30777.7
30796.7
30800.2
30781.3
30705.8
30649
30584.9
30510.1
30448.2
30585.9
24426
22696.3
20286.7
17987.9
17931.3
17890.1
15647.6
14506.3
13265
10980.3
8627.86
6383.46
4177.85
2331.48
972.541
155.447
159.086
155.653
384.818
377.878
726.472
735.428
733.64
377.705
376.092
411.092
423.398
384.139
707.025
691.097
789.913
998.086
1046.8
1337.15
1901.5
2333.01
1850.3
1228.92
733.837
727.542
743.353
794.346
1241.63
1229.85
1214.91
1885.87
1889.02
1910.46
2734.01
2739.44
2680.41
2798.47
3274.83
3840.56
4756.39
5758.38
6461.48
5755.61
4721.41
3701.16
3685.92
3702.63
2846.98
2828.06
3675.16
4642
5337.16
4649.79
3654.11
2716.61
1897.18
1214.8
1294.49
1900.63
2694.87
3675.64
4767.01
4895.43
5902.43
5892.95
6016.21
7039.12
8131.36
9178.24
9886.32
10643.3
11731
12766.3
13448.7
14146.1
15121.9
15754.6
16334
16903.8
17069.5
17619.1
18146.4
18248.9
18744.5
19216
19229.7
19231.4
19220.7
18751.1
19001.9
18943.1
18871.2
18762.4
18558.3
18792.2
18950.3
18750.5
18901.9
19018.3
18794.9
18914.8
19011.1
18802.7
18831
18811.2
18904
18983.8
18976
18970.3
18965.4
18959.5
18957
18867.1
18764.2
18774.3
18735.2
18935.9
18830.7
18700.7
18919.4
18793.1
18636.1
18830.8
175.428
390.601
732.635
1222.83
1896.26
2727.94
3677.8
4713.34
5802.81
6923.26
8062.26
9210.62
10364.2
11519.5
12676
13831.8
14985.9
16136.9
17282.3
18419.5
19545.2
20650.9
21712.4
22397.9
23073.7
24132
25306.1
26547
27832.4
29124.7
30426
31743.2
33191
34285.4
35442.8
35126.6
35825.2
36836.5
36848.1
38165.6
38239.8
37007.9
35717.1
34997.9
34705.5
33226.3
33176.1
31771.9
31849.8
30519.1
30562.2
30573.2
29241.7
29223.3
29193.9
29191
29203.8
29230.2
29393.4
29446.7
28674.3
28019.8
28149.7
28286.7
28440.7
28673.2
29061.8
28874.1
28104
27018.6
27454.6
27711.2
27140.9
25867.2
24503.8
23221.2
21971.8
20758.1
19569.1
18391.5
17209.7
16051.4
14900
14898.4
14903.4
15454.2
14869.4
13761.6
12543.6
11458.3
10247
9150.87
7950.84
6892.78
5726.93
4697.37
3609.55
2740.17
1875.22
1221.73
690.602
356.949
147.018
38.9444
-33.3391
-82.3885
-105.469
273.837
274.86
270.014
-9.48296
-12.1849
-9.58099
271.237
263.484
159.178
152.982
152.287
262.049
361.167
372.245
362.374
696.915
690.482
681.596
683.099
695.288
1212.74
1264.64
1263.64
1904.94
2739.52
3681.12
4714.2
5809.6
6945.63
8105.98
9276.36
10446.1
11606.1
12741.9
13816.9
14557.7
15307.4
16426.6
17517
18232
18928
19958.9
20637.5
21256.3
21933.2
22570
23522
24138.8
24677.6
25236.4
25456.2
26020.9
26606.4
27098.9
27656.8
27816.1
28306.2
28828.1
28940.7
29389.5
29876.4
29957.5
30035.2
30073.1
30409.1
30799.6
30821
30824.2
30808.9
30421.7
30594.2
30576.3
30500.4
30376.3
29902.2
29978.8
30051.5
30084.4
29162.1
28026.1
26805.9
24978
24452.6
22726.2
22189.1
20474.4
19901.9
18757.9
17530.5
16407.4
15197.3
13455.5
12829.5
11690.8
10473.3
9343.9
8137.9
7034.51
5859.09
4792.19
3700.57
2766.22
1919.5
1272.48
742.481
705.815
732.649
725.839
741.842
792.815
772.699
722.374
1205.32
1216.41
1239.81
1227.89
1212.67
1227
1335.28
1045.21
997.258
690.553
789.393
605.406
605.668
935.735
935.717
1370.84
1399.27
1456.82
2035.32
1899.19
1847.72
1883.08
1886.53
1908.6
1823.64
1825.91
1898.21
1902.68
1902.36
1894.45
1900.7
1901.15
1898.11
1809.34
1825.82
1996.28
2001.06
1921.13
1915.39
1903.76
1898.87
1907.55
1909.34
1983.43
1978.16
1801.31
1776.96
1861.51
1859.44
1857.74
1847.51
1852.86
1854.71
1845.84
2669.53
3602.88
3628.42
2652.92
2639.23
2642.58
2658.57
2673.58
2699.73
2826.23
2295.02
2842.88
2760.85
2760.66
2745.34
2734.01
2729.7
2732.29
2740.52
2754.92
2775.09
2782.3
2869.21
2320.06
2852.89
2730.63
2709.48
2695.95
2684.91
2684.67
2697.59
2718.23
2828.67
2307.62
2846.1
2732.56
2737
2677.68
2795.58
2330.09
2924.18
2818.24
2807.86
2016.52
2018.06
2018.22
1371.23
1400.25
1458.29
2037.08
2017.65
2808.77
2811.96
2811.88
3742.51
3742.07
3757.1
3781.67
3901.1
3838.53
3699.58
3685.4
3702.93
3676.72
3656.79
3679.23
3578.08
3585.97
3668.54
3646.14
3667.34
3714.66
3736.97
3727.12
3711.7
3699.76
3689.35
3682.27
3680.13
3682.27
3688.53
3695.55
3704.19
3711.23
3681.69
3632.32
3606.47
3626.23
3540.08
3528.09
4177.15
4829.89