/*--------------------------------*- C++ -*----------------------------------*\
  =========                 |
  \\      /  F ield         | OpenFOAM: The Open Source CFD Toolbox
   \\    /   O peration     | Website:  https://openfoam.org
    \\  /    A nd           | Version:  7
     \\/     M anipulation  |
\*---------------------------------------------------------------------------*/
FoamFile
{
    version     2.0;
    format      ascii;
    class       volScalarField;
    location    "18.8";
    object      p_rgh;
}
// * * * * * * * * * * * * * * * * * * * * * * * * * * * * * * * * * * * * * //

dimensions      [1 -1 -2 0 0 0 0];

internalField   nonuniform List<scalar> 
15284
(
110211
110248
110201
110090
109775
109226
108042
106085
102189
96526.3
86421.4
75178.5
58025.5
42374.6
26086.1
14759.5
38843.5
57471.1
74579.4
82082.5
75742.4
60004.4
49623.1
47016.8
41119.2
38144.3
40180.4
32294
34296.4
42456.2
46086.6
51314.5
60296.8
76249.5
82283.3
88422
110217
110238
110184
110074
109753
109226
108038
106120
102213
96554.2
86422.9
75029.9
57776.7
42416.3
26149.9
15099.3
14073.9
18734.5
24770.7
38619.9
57145.5
74547.1
87712.9
93348.3
88718.2
88994.6
97580.2
103006
106299
108259
109355
109924
110198
110310
110343
110348
110336
110297
110250
110204
110163
110123
110089
110054
110028
109995
109961
109931
109896
109860
109827
109791
109760
109727
109697
109668
109641
109616
109593
109572
109553
109535
109520
109505
109487
109472
109461
109449
109425
109395
109379
109351
109348
109354
109363
109429
109485
109554
109623
109605
109695
109613
109560
110122
110167
110188
110207
110158
110057
109744
109226
108042
106125
102212
96548.5
86415.5
75021.6
57779
42417.2
26165.3
15132.8
13104.7
24708
30910.6
26175.8
26402.5
39557.1
57582.8
75037.5
87484.1
96448.3
102335
105915
107394
105912
102420
97439.5
97314.3
102319
105752
107992
109225
109870
110167
110297
110355
110370
110342
110297
110249
110226
110194
110148
110093
110032
110014
109988
109962
109932
109897
109861
109832
109795
109765
109729
109698
109666
109638
109610
109585
109560
109539
109518
109497
109477
109460
109447
109429
109403
109380
109352
109338
109307
109298
109296
109304
109360
109415
109463
109530
109495
109529
109481
109343
108948
109863
109829
109798
109769
109973
110072
110142
110196
110079
109387
106826
99268.6
80327.9
50753.7
19810.7
7438.85
14770.3
17662.8
15311.1
13550.4
24076.4
39259.9
56524.7
74324.5
81595.6
74188.5
57288.4
39962.9
40339.7
58628.6
75014
87392.5
96231.5
102404
106146
108292
109377
109946
110209
110319
110347
110335
110301
110271
110255
110214
110166
110124
110043
109990
109958
109945
109933
109899
109882
109850
109814
109775
109740
109705
109672
109639
109609
109580
109552
109524
109496
109472
109449
109425
109403
109380
109355
109322
109299
109270
109255
109246
109255
109250
109245
109265
109297
109352
109408
109465
109509
109541
109404
109364
109170
109376
109463
109537
109593
109692
109758
109815
109953
109912
109846
109833
109836
109849
109827
109828
109799
109779
109778
109759
109733
109697
109666
109765
109752
109844
109935
110002
110043
110018
110077
110140
110116
110017
109735
109221
108221
106516
103267
97748.1
88048.3
76170.5
58499.5
40263.6
22953.9
13157.8
10074.6
10211.9
9785.14
13682.7
19402.9
25191.3
39199.7
59708.2
76997.4
88016
96276.6
102448
106390
108527
109423
109648
109573
109685
109881
109985
110023
110024
110008
109998
109952
109901
109814
109726
109687
109686
109706
109691
109634
109608
109555
109550
109497
11972.2
15442.3
24010.5
39361
47199.3
39420
24603.1
25450
38436.6
57844.9
74707.1
87518.5
96009.1
101917
104353
101762
96223.9
88770.9
87955.4
96247.1
101963
105849
108017
109237
109883
110195
110322
110366
110361
110331
110276
110241
110220
110195
110156
110103
110075
110034
109986
109952
109922
109889
109853
109824
109784
109748
109709
109679
109643
109614
109580
109552
109520
109493
109465
109438
109415
109390
109364
109337
109308
109278
109258
109238
109237
109233
109247
109252
109255
109241
109236
109244
109264
109290
109263
109283
109334
109313
109324
109368
109417
109447
109494
109528
109551
109505
109524
109577
109573
109626
109621
109712
109754
109798
109817
109826
109835
109836
110022
110007
109994
109892
109907
109822
109865
109849
109832
109815
109796
109779
109763
109748
109742
109716
109689
109641
109629
109615
109676
109720
109752
109764
109746
109731
109777
109861
110003
110066
110064
110119
110075
110014
109907
110099
110124
110019
109973
109887
109783
109642
109379
108631
106616
102675
96407.6
88026.2
76940.2
59464.3
38849.6
23749.7
15119
9175.98
6175.37
5009.45
5012.27
6726.86
6118.52
6546.87
12433.8
24415.1
39016.8
57906.2
75612.7
88592.4
97284.8
102697
105925
107836
108974
109635
109995
110165
110213
110188
110138
110073
109979
109898
109848
109837
109804
109763
109725
109691
109661
109612
109563
109515
109467
109414
109376
110241
110339
110266
109637
107176
99391.7
78194.6
50775.6
7900.91
15223.7
18308.2
15144
14671.7
23259.3
38269.1
46066.8
38185.6
23039.6
14757.6
16014.8
23555.1
37522
58140.9
75005.6
87166
96043
99590.7
95543.5
86992.6
74999
59453.7
59816.6
75231.2
87197.2
95865.8
102265
106103
108192
109347
109943
110233
110349
110378
110371
110359
110333
110284
110213
110115
110097
110090
110011
110024
110005
109969
109942
109904
109862
109826
109781
109747
109707
109675
109636
109602
109565
109533
109503
109473
109444
109415
109389
109359
109332
109310
109284
109260
109241
109228
109221
109226
109250
109277
109322
109353
109336
109330
109353
109313
109289
109260
109296
109257
109276
109262
109276
109275
109310
109319
109849
109838
109884
109937
109984
110046
110107
110181
110231
110265
110242
110142
109851
109298
108120
106161
102242
96514
86417.6
75071.6
58106.4
42002.3
24916.1
14660.7
7768.37
6555.54
5398.62
6601.65
9052.19
10995.9
9127.44
9098.44
8896.3
5302.9
6163.11
8944.8
16594.8
23171.3
39800.6
46644.4
37806.5
24420.8
15006
9353.37
11466
15334
23598.8
36466
57577.3
65665.5
55457
37510.7
23692
15817.3
15966.6
26451.7
38342.1
55089.2
75143.4
81747
73492.5
56314.2
38493.1
27803
25292.1
37546.4
57206.4
74844.4
87707.2
96277.8
102205
104618
101934
95932.5
87464.7
75598.7
59109.5
59520.3
75696.5
87355.3
96047.2
102139
105982
108164
109369
109983
110268
110377
110403
110391
110375
110338
110287
110246
110221
110171
110126
110101
110006
109938
109928
109940
109917
109864
109793
109770
109749
109722
109685
109643
109595
109560
109534
109498
109468
109441
109426
109389
109353
109336
109296
109267
109272
109278
109256
109250
109251
109253
109257
109261
109262
109268
109267
109279
109278
109263
109260
109279
109278
109291
109246
109283
109311
109343
109348
109357
109369
4144.52
3957.65
4013.97
14878.9
14138.5
14507.8
14102.1
24322.4
24529.5
14518.9
14274.6
24691.6
24372.4
25407.5
14238.8
24878.8
24780.5
25110.6
14025.7
14468.3
15090.6
15845.3
15184.7
14829.8
15572.3
20209.4
21890.3
47954.5
21815.6
24726.3
24520.5
24371.8
24988.5
15237
15720.8
25419.8
24923.7
15225.1
10052.1
6866.54
8657.04
9095.2
9541.18
5641.5
5739.89
7950.8
7061.38
11391.3
12422.4
25838.6
30834.4
24043.1
14962.3
10279.2
10078.6
15722
15284.3
15332.1
10465.3
24356.3
24927.9
24296.4
25222.1
14497.5
9789.52
5801.35
5828.79
6777.73
5285.82
4000.64
9262.68
11485.2
8891.68
4306.4
5143.57
5288.59
5023.03
5738.68
4658.17
9953.91
8734.49
15503.5
23096
39077.5
46917.1
39221.9
23711
14773.9
15102.2
10194.5
9292.31
9954.01
9236.02
15634
16463.7
25168.2
37234.5
56079.3
65278.8
56649.9
37571.3
23854.1
25021.2
15823.7
15406.9
25077.2
24478.9
39506.4
40335
39298.8
57974.6
74617.6
87353.5
96333.4
102316
106056
108247
109443
110052
110333
110442
110466
110448
110415
110385
110345
110259
110230
110206
110173
110138
110067
110011
110031
110005
109975
109931
109898
109834
109778
109738
109773
109726
109677
109659
109641
109607
109586
109601
109588
109567
109548
109550
109552
109553
109578
109567
109578
109580
109594
109585
109578
109596
109570
109504
109515
109582
109604
109600
109591
109589
109577
109572
109561
109606
109603
109604
109614
109594
110042
110083
110092
110148
110216
110267
110306
110290
110198
109921
109348
108183
106132
102148
96252.3
86058
74721.4
57582.4
42111
26278.9
15886.4
4776.15
5915.79
7655.16
15738.8
18988.6
15761.2
8405.41
8790.11
5226.7
5295.45
6610.17
5375.15
4946.35
5923.29
5403.09
5624.57
10559.6
12318.2
10070
9441.14
15069.7
17546.5
24039.5
40364.9
47464.8
39673.3
25136.9
26413.2
27777.4
40215.4
55538
72998.9
80446.5
73314.5
55335.9
38631.6
26355.4
17720.5
15611.3
15406.9
25902.7
25764.5
25505
15213.3
9780.33
9279.5
6742.65
5466.88
8945.46
8744.41
15767
19965.9
16618.4
15751.8
19886.4
25029
25178.8
25314
41013.9
39886.7
39041.6
39351
57061.8
57835.5
58524
58418.4
59080.9
75112.7
87549.5
96399.9
102347
106060
108235
109427
110039
110328
110444
110472
110446
110411
110408
110358
110262
110190
110197
110195
110116
110052
110018
109979
109938
109976
109953
109899
109851
109854
109801
109723
109700
109688
109677
109711
109671
109639
109640
109624
109634
109628
109624
109650
109631
109644
109675
109688
109672
109647
109634
109664
109647
109620
109630
109659
109646
109600
109624
109615
109628
109639
109676
109690
109693
109650
109636
109668
109654
109691
109674
109736
109738
109761
109774
109755
109774
109908
110008
110063
110009
109893
109902
110016
110040
110058
110032
109960
109830
109671
109524
109334
108657
106660
102706
96415.7
88015.6
76921.9
59477.5
38902.3
23822.5
15031.8
9016.3
6011.34
4509.87
3096.18
3162.98
2830.82
4691.9
7329.82
7292.81
6813.1
4927.16
1922.95
2714.62
1450.84
1474.72
1766.11
2021.31
3651.46
5585.6
8899.05
9635.33
11488.9
24355.4
41134.9
59268
75689.6
88372.4
97120.2
102712
106144
108085
109148
109712
110004
109998
109941
109964
110014
110028
110013
109990
109965
109980
110006
110022
110008
109932
109714
109673
109750
109806
109404
108391
106374
102624
96512.6
87622.5
75732.6
59445.1
39538.8
23297.2
12475.2
16330
22351
37615.1
59839.1
77317.2
87543.6
96135.5
102753
106783
108684
109231
109378
109597
109806
109921
109993
110028
110030
110009
109973
109930
109837
109791
109802
109797
109785
109771
109758
109747
109750
109740
109714
109682
109650
109619
109624
109670
109696
109701
109713
109665
109665
109754
109888
109949
109988
109973
109979
110035
110038
110031
109993
109899
109767
109730
109773
109424
108463
106330
102424
96307.7
88059.4
76952.8
59664
39279.4
25384.8
19253.9
13658.1
10265
9987.07
5093.02
4875.7
2781.77
1003.41
659.258
784.324
940.669
653.794
1625.97
3238.51
5889.26
8810.22
8799.15
12953.1
25813.5
40368.3
58417.5
75425.2
88546.7
97261.4
102730
106029
107959
109026
109613
109931
110090
110124
110093
110074
110062
110031
109990
109944
109853
109816
109838
109932
109930
109819
109776
109788
109799
109794
109777
109758
109742
109737
109741
109750
109738
109715
109725
109722
109689
109668
109736
109866
109928
109924
109894
109983
110036
110070
110069
110048
110015
109945
109701
109128
108034
106034
102572
96933.6
88379
76204.4
59367
39780.8
24089
14422.6
11287.4
10044.3
9315.3
7202.89
2685.44
2812.38
875.13
1078.4
671.415
1390.59
1390.05
726.927
702.506
881.447
1172.95
2872.51
3652.01
8092.29
11065.6
13736.8
22831
38861.3
58783.1
75388.5
88108.1
97231.8
102897
106080
107871
108909
109529
109885
110074
110151
110160
110022
110001
110015
110005
109943
109842
109818
109830
109916
109999
110040
110071
110106
110126
110120
110044
109856
109499
108884
107850
106059
102853
97130.7
87981.5
75294.5
58457.7
39124.8
23475
13450.4
9463.31
8255.11
5402.22
5775.87
13396.7
15271.5
15561.6
14686.3
23708.4
25790.4
27370.2
25400.5
40669.6
40925.4
39697.2
38886.6
57919.1
57336.1
57177.7
57016
73448.1
73889
74290.9
74836.1
88005.1
87817.7
87629.5
87299.8
96831.1
96981.8
97051
97136.8
102767
102696
102640
102563
105847
105897
105941
105982
107835
107825
107803
107775
108904
108911
108915
108910
109540
109545
109549
109554
109895
109893
110081
110077
110162
110160
110176
110181
110106
110020
109941
109952
110059
110048
110058
110045
110023
109987
109960
109881
109870
109843
109806
109846
109935
109947
110011
110053
110065
110051
109996
109883
109710
109507
109299
108691
106755
102724
96129.3
87555.5
77281
59842.2
37700.1
22459.5
16230.3
10756
10849.5
5777.92
4226.6
2243.72
1741.9
1764.32
1796.85
1741.21
2290.91
4295.73
5842.26
5616.01
8798.59
9699.96
11777.9
25065.8
41377.9
59152.3
75703.3
88382.8
97103.4
102734
106210
108139
109154
109682
109867
109843
109923
110012
110045
110044
110037
110012
109976
109959
109996
110046
110057
110038
110018
109938
109764
109560
109571
109306
108446
106451
102680
96557.3
87678.5
75679
59412.8
40006.1
23874.7
12609
14261.8
15179.3
9884.84
4928.26
3582.4
2032.82
1744.15
1521.31
1572.61
1905.14
2818.52
3087.5
5013.72
8061.73
6912.92
2829.59
975.838
533.245
1774.5
1072.86
1100.98
1078.04
994.017
688.368
689.805
677.718
677.32
1601.05
3200.87
5738.45
8824.04
8813.29
13098.3
25765.3
40252.8
58370.2
75417.5
88495.3
97210.7
102703
106033
107968
109035
109625
109944
110077
110087
110087
110090
110078
110090
110121
110140
110128
110062
109887
109538
108921
107876
106062
102837
97104.6
87949.3
75316
58464.7
38927
23164
13139.4
9457.62
8638.01
3930.26
8420.89
11161.1
13497.4
22615.9
38757.6
58796.6
75403.5
88113
97241.2
102906
106088
107886
108933
109560
109913
110085
110134
110142
110067
110107
110220
110131
109939
109577
108937
107852
105996
102780
97151.4
88002.9
74815.7
57900.2
38868.3
23645.8
14650
14588
26042.2
39935.3
57745.9
74838.6
88210.9
97318.2
102865
106069
107974
109103
109741
110066
110204
110239
110217
110121
110029
109967
109951
109911
109857
109802
109752
109700
109641
109575
109519
109479
109433
109375
109355
109324
109302
109286
109299
109376
109306
109278
109292
109290
109267
109269
109250
109333
109263
109341
109304
109373
109372
109346
109359
109358
109449
109326
109279
109265
109316
109402
109213
109242
109251
109396
109356
109428
109303
109241
109297
109420
110088
110010
109176
109315
109304
108610
109681
109877
109430
109429
109419
109371
109390
109516
109870
109466
109427
109522
109472
109264
109233
109229
109261
109266
109286
109342
109370
109410
109466
109516
109567
109582
109576
109554
109566
109617
109594
109591
109594
109600
109593
109547
109646
109696
109683
109724
109766
109758
109792
109787
109803
109793
109815
109810
109837
109851
109846
110058
110132
110183
110178
110120
109972
109661
109059
107963
105982
102561
96660.3
87483.3
74212.2
58190.8
41068.7
26475.8
14461.7
110168
110227
110138
109945
109583
108940
107836
105944
102696
97050.7
87809.3
74257.2
57276.8
39634.7
25778.6
15578.7
15132.2
24972.5
39399.8
57515.8
74494.8
87935.5
97174.8
102840
106128
108064
109186
109805
110112
110237
110257
110226
110094
110045
110022
109964
109901
109831
109780
109735
109682
109619
109540
109485
109452
109407
109352
109311
109277
109275
109263
109281
109285
109303
109328
109260
109258
109278
109298
109314
109381
109375
109438
109492
109541
109599
109652
109713
109766
109828
109882
109942
109987
110026
110038
110107
110226
110284
110262
110155
109863
109305
108149
106199
102306
96590.8
86370.7
74927.5
57547.5
42254.9
25771.9
15250
37611
74448.6
109656
109047
107935
105923
102439
96460.5
87146.9
73771.6
57883.5
41386.2
26660.9
14438.4
12990
22369.4
38724.1
57209.2
72921.8
86370.4
96628.5
102977
106448
108312
109336
109888
110162
110276
110301
110278
110226
110127
109971
109898
109889
109862
109802
109714
109627
109577
109535
109479
109434
109388
109344
109309
109277
109268
109291
109277
109233
109281
109591
109464
109476
109792
109454
109450
109491
109421
109284
109411
109255
109255
109232
109243
109254
109249
109295
109299
109311
109368
109392
109426
109464
109509
109555
109582
109614
109637
109631
109657
109693
109721
109739
109762
109778
109770
109791
109802
109800
109800
109860
109935
109988
110040
110062
110089
110201
110151
110012
109678
109120
108069
106473
103283
97860.7
87811
75611.1
56516.3
41368.5
24767.2
13853
9028.14
6814.17
2864.71
3179.93
1124.51
532.733
470.213
470.889
519.719
519.49
733.268
16835.1
26546.4
39353.1
56996.8
74254.8
87834.5
97027.9
102719
106093
108079
109209
109821
110121
110241
110265
110238
110178
110115
110047
109969
109885
109821
109773
109732
109669
109595
109519
109471
109432
109387
109336
109291
109266
109264
109297
109333
109288
109375
109249
109256
109127
109141
109187
109240
109186
109237
109144
109212
109051
109126
109213
109148
109193
109114
109209
109215
109165
109078
109067
109106
109183
109237
109172
109149
109188
109140
109125
109017
109239
109233
109220
109236
109225
109144
109284
109297
109323
109317
109290
109269
109278
109314
109352
109400
109458
109491
109452
109407
109361
109316
109277
109262
109269
109289
109267
109286
109333
109379
109428
109473
109488
109547
109522
109567
109629
109717
109795
109847
109863
109888
110017
110134
110214
110269
110294
110273
110161
109885
109321
108276
106410
103075
97086.7
87100.4
73014.5
57109.7
40918
24675.7
12536.3
15233.1
28533.4
40879.8
56464.5
73673.5
87662
96998.5
102712
106125
108128
109254
109852
110142
110257
110282
110257
110205
110136
110048
109938
109861
109834
109789
109728
109653
109575
109518
109566
109627
109689
109751
109808
109863
109930
110005
110074
110137
110201
110259
110288
110271
110161
109881
109290
108168
106117
102524
96402.3
86999.7
73578
57601.8
41064.5
27103.9
15297.3
40836.4
48406.2
40790
24250.9
24345.2
19424.1
14911
25009.8
24750.3
24966.6
40695.4
40350.6
58391.3
58673.9
40149.9
39892.2
58051
55723.8
81837
57141.6
39371
40223.6
49497.4
41534.6
54276.5
56174.3
57463
41033.4
49779.8
41553.7
24316.8
14942.1
18792.1
21389.8
21008.5
20154.1
10679.1
20527.7
10765.3
10801.8
10955.3
7375.29
4858.81
5114.07
8947.91
9386.48
16934.9
19005.7
14588.1
15075.7
17785
25375.8
25734.6
24930.3
41142.4
47986.1
39875.5
39471.9
57696.6
59285.7
73476.4
85429
94950
99126
94915.8
85397.5
72899.5
72781.8
58233.2
59043.5
73798.7
86089.8
95435.7
101941
104635
101944
95583.9
86199.7
72980.4
57140.5
39527.9
40574
26351
26153.8
14583.3
9546.58
8711.22
8802.55
5442.34
5283.25
9893.2
9953.52
5026.78
5546.13
5159.15
9461.58
9460.83
15742.4
15428.9
25979.4
26405.5
26775
15503.9
16921.8
9214.27
5184.46
5582.5
5352.3
6891.56
9133.95
9050.36
17262.6
16800.5
15980.2
15573.5
25375.2
25687.9
26489.7
14722.2
16344.4
23374.5
47821.9
22513
20324.7
21678.5
20477.7
22754.8
16230.5
21409.2
16139.6
15783.9
16359.1
15394.7
15811.2
15275.1
27445
26602.7
27267.3
27666.5
33325.2
41632.9
56077.1
73043.8
79669.6
71852.4
56293
40404.5
39855.1
26274.1
27168.3
40714.5
41303.9
41262.8
41145.2
57474.5
57839
73219.3
72963.6
85651.7
86110.9
85572.8
95352.3
102054
102666
106248
108373
109522
110107
110378
110469
110535
110546
110525
110498
110424
110350
110347
110359
110342
110312
110284
110257
110238
110201
110122
110114
110113
110146
110130
110083
110109
110074
110098
110124
110164
110189
110198
110105
110086
110188
110139
110055
110099
110152
110144
110170
110162
110080
109996
109991
110081
110124
110141
110144
110147
110141
110137
110104
110092
110069
110082
110082
110078
110055
110015
110049
110068
110048
110054
110017
110021
109987
109986
110029
110099
110045
110061
110105
110031
109980
110087
109973
109951
109953
110001
110035
109988
110002
109993
110121
109959
110008
110065
110106
110017
109981
110035
110117
110082
110034
110020
110078
110033
110127
110130
110107
110037
109997
109994
109998
110020
110091
110098
110121
110173
110167
110227
110231
110171
110283
110245
110345
110344
110363
110422
110457
110515
110544
110535
110482
110363
110067
109447
108237
106022
106714
106745
108596
109611
110122
110311
110446
110506
110512
110496
110479
110453
110397
110289
110275
110304
110263
110177
110110
110079
110049
110026
110008
109980
110005
110031
110004
109955
109932
109948
109972
109971
109973
110008
110001
110017
109986
109975
110022
110028
110005
109989
109975
109980
109923
109866
109909
109903
109988
110004
109978
109939
109870
109874
109912
109935
109933
109909
109966
109973
109975
109985
109948
109907
109881
109862
109916
109870
109915
109866
109929
109930
109930
109925
109923
109927
109914
109895
109843
109833
109879
109926
109938
109937
109948
109971
109932
109908
109919
109904
109920
109917
109916
109938
109959
109950
109968
109950
109972
109957
109975
109973
109927
109936
109883
109870
109909
109831
109840
109848
109882
109871
109864
109861
109852
109874
109875
109873
109867
109858
109863
109849
109850
109853
109854
109857
109833
109832
109850
109847
109804
109815
109772
109761
109700
109684
109707
109760
109791
109753
109700
109657
109716
109779
109809
109779
109775
109807
109825
109796
109764
109710
109745
109794
109827
109785
109761
109817
109790
109736
109691
109641
109707
109674
109753
109818
109880
109938
109997
110106
110149
110256
110275
110337
110392
110399
110326
110148
110320
109973
109333
108018
105989
102050
96467.3
86710.4
73031.4
109747
109226
108006
106037
102017
96282
86174.2
74874.2
57825.7
42315.9
26752.4
15688.6
10761.2
50312.7
49393.8
48232
41208.3
40593.3
58304.4
61341.6
61070.7
77113.6
89795.8
97939.5
102908
106002
107945
109099
109743
110076
110227
110282
110286
110273
110251
110209
110162
110130
110095
110070
110038
110005
109968
109925
109893
109869
109843
109811
109779
109752
109728
109705
109683
109668
109654
109650
109649
109646
109648
109647
109649
109649
109650
109647
109641
109634
109621
109622
109615
109638
109660
109661
109648
109656
109626
109657
109634
109669
109674
109683
109683
109671
109655
109678
109693
109715
109720
109737
109760
109767
109784
109812
109841
109868
109897
109933
109970
110002
110034
110062
110085
110094
110105
110142
110204
110248
110272
110283
110282
110244
110125
109853
109304
108275
106415
103138
97501.8
88687.6
76196.3
63095.6
61198
75359.4
82545.5
75748.9
76473.3
76679
75996.2
77966.5
88364.3
96743
102673
106306
108340
109410
109944
110191
110290
110314
110302
110280
110252
110221
110179
110144
110109
110075
110038
110000
109956
109921
109901
109876
109845
109813
109779
109750
109724
109700
109678
109661
109647
109639
109633
109626
109624
109620
109618
109615
109615
109610
109603
109596
109587
109584
109586
109594
109658
109601
109530
109492
109495
109445
109423
109420
109372
109435
109433
109404
109460
109463
109483
109497
109512
109493
109524
109528
109541
109553
109570
109586
109601
109619
109641
109665
109693
109721
109752
109782
109818
109854
109891
109919
109939
109956
109993
110023
110040
110047
110063
110074
110129
110186
110242
110287
110312
110336
110327
110333
110303
110193
109926
109374
108328
106465
103278
97877
89217.6
75793.6
61504.4
62337.3
77629.3
89275.1
97394.5
102734
106028
108005
109143
109770
110094
110242
110294
110295
110281
110263
110231
110183
110136
110062
110050
110032
110008
109980
109945
109914
109884
109850
109814
109779
109746
109720
109692
109669
109646
109629
109615
109602
109587
109576
109565
109557
109550
109544
109534
109522
109509
109498
109484
109476
109535
109535
109544
109553
109563
109571
109578
109583
109587
109593
109598
109606
109616
109626
109637
109652
109672
109694
109721
109747
109778
109813
109847
109880
109907
109932
109960
109994
110030
110070
110099
110145
110186
110225
110253
110262
110285
110305
110315
110289
110190
109945
109416
108343
106271
102530
96392.2
87911.2
78547.6
65059.9
44441.7
46165.5
63706.3
60165.1
42726.5
42704.3
40947.8
48202.6
40534.4
40363.6
58439.9
60562.3
60880.6
60296.4
57870.8
58073.4
75599
76427.1
76520.5
75619.9
82606.1
75300.6
58065.4
75363.9
75401.4
74731.9
87420.5
87801.3
87741.7
74759.6
58069.9
40027.6
39542.7
40641.9
40593.1
39787.6
58424.7
58614.1
75067.9
74802.2
87073.8
87465
87327
74137.6
58060.7
39328.7
38933.6
39937.7
39076.7
57001.3
57304.9
57700.4
74606.4
73948
74488.7
76268.4
75235.7
88325.9
96597.3
102341
106045
108225
109415
110022
110304
110415
110440
110426
110409
110383
110311
110203
110174
110170
110160
110130
110078
109994
109981
109963
109937
109907
109867
109821
109768
109770
109730
109689
109652
109614
109595
109551
109520
109514
109484
109450
109417
109401
109406
109414
109397
109397
109431
109438
109401
109376
109450
109505
109506
109522
109508
109489
109502
109503
109508
109506
109513
109516
109525
109525
109534
109540
109551
109533
109841
109944
110057
110152
110132
110174
110270
110259
110328
110266
109703
107419
99747.9
80489.8
49200.4
17582.4
16981.1
17000
26476.6
26347.9
41413.4
41081
40934.7
27401.3
28206.2
28344
27752.1
27028
40163.7
41259.4
46401.8
47142.2
52680.9
57948.4
72882.1
79383.8
70961.7
56402
41409.5
40669.1
41857.6
43962.9
56893.2
56604.5
56030.4
71692.2
71636
71352.1
85239.2
85342.9
85363.2
86231.2
91815.2
96540.5
102441
106201
107649
106105
102278
95645.9
95605.3
95565.1
87150.1
86060.2
95074.6
101676
104445
101680
95182.7
85592.5
72302.2
57201.8
58267.3
72198
85357.7
95332.3
102151
102529
106182
106120
106708
108568
109607
110135
110328
110479
110549
110566
110533
110473
110465
110449
110370
110291
110282
110326
110350
110348
110331
110307
110298
110300
110310
110333
110318
110314
110229
110248
110313
110330
110323
110316
110305
110298
110313
110251
110240
110213
110238
110264
110286
110281
110275
110266
110256
110254
110248
110237
110217
110229
110240
110232
110231
110209
110133
110132
110210
110200
19616.4
29160.8
40663.3
57131.2
73801.4
87128.9
96562
102556
106107
108153
109285
109881
110168
110288
110318
110301
110231
110101
109972
109955
109929
109877
109810
109764
109701
109622
109575
109526
109466
109403
109351
109308
109270
109258
109254
109249
109251
109276
109268
109345
109393
109276
109247
109232
109242
109260
109252
109296
109283
109335
109334
109346
109400
109415
109444
109476
109513
109556
109601
109617
109619
109658
109624
109694
109694
109710
109678
109644
109656
109688
109713
109728
109721
109750
109781
109803
109821
109829
109828
109862
109956
110028
110055
110085
110090
110092
110175
110216
110248
110218
110120
109807
109274
108039
106164
102082
96565
85878.5
75540.2
57170.1
43041.1
24825.6
15172.6
7360.72
6186.67
3400.74
1107.2
20452.3
20597.6
20288.9
7501.76
7298.69
6815.07
20161.6
19907.9
15601.9
16744.2
15948.1
19649
24451.9
24333.1
24734.4
41307.9
39644.1
38652
39286.1
39044.8
58207.4
58635.4
58232.4
76208.3
88076
96520.5
102338
106039
108226
109422
110031
110314
110424
110450
110436
110420
110396
110344
110232
110198
110199
110172
110137
110035
110001
109996
109973
109947
109918
109882
109863
109818
109771
109733
109689
109669
109639
109608
109595
109560
109522
109464
109513
109512
109483
109458
109461
109463
109472
109504
109483
109474
109426
109484
109535
109512
109526
109521
109556
109610
109675
109779
109843
109968
110033
110144
110199
110271
110330
110371
110410
110472
110562
110550
110467
110227
109697
108571
106537
102516
96628.3
86200.1
73797.2
56075.6
41565.6
40082.6
41362.6
40582.5
41758.6
43800.8
41560.6
40374
56226.5
55998
56821.6
56473.6
55913.3
56297.1
57879.1
52678.1
47083.6
41210.6
46432.6
35801.3
35740.7
50786.9
50757
61501.8
57572.4
60488.8
72042.6
72780.8
70858
71592.5
71530.5
71291.8
72969.7
71747.1
72226.1
72168.9
73446.6
72850.5
72754.5
73780.3
72951.3
73023.1
73283.9
75133.8
75716.7
74884.5
75082.8
74349.6
74615.5
75669.8
76233.5
76967.8
75172.9
75216.1
73475.6
74867.3
75630.7
75748.4
75049.3
75091.2
75350.6
74788.1
87597.1
96068.3
95898
87241.7
87041.6
87208.7
87379.2
87469
87701.6
87582
81768.7
89530.3
88312.6
87847.1
88078.8
87985.9
87365.5
87031.8
87544.8
87415.7
87341.2
87746.5
87739.6
80444
87405.9
86182.4
86083.5
85573.5
85378.5
85410.4
85319.3
85562.8
86000.9
79578.4
87113.9
85165.9
85277.5
85288.6
86186.1
79290.3
87875.8
86401.2
86525.9
71641.3
73497.9
73495.2
61500
57625.2
60508
72100.4
71679.9
86549.7
86195.5
86187.6
96349.7
97222.2
96893.2
97105.4
97139.9
96508.9
95611.5
95565.2
95561.4
95061.1
95179.6
95321.1
94953.7
94918
95354.9
95447.7
95587.3
96005.2
95992.6
96367.9
96234.5
96389.5
96414
96159.9
96348.8
96481
96516.9
96285.7
96600.4
96675.9
96195.4
96280
95933.2
96088.7
96085.9
95528.2
99604.6
102943
102388
102292
101951
106106
104365
106619
106118
105995
106194
105991
102160
101925
102214
102290
102255
102347
102131
102331
102288
102327
102277
102363
102392
102237
102304
102059
102132
101956
101960
102062
102680
99136.5
102558
102160
101690
101675
101674
102343
102264
102422
102497
102979
103308
103344
102924
102935
96357
97235.2
96916.3
86444.2
87908
97113.5
97151.2
102506
102974
103311
103345
106553
106656
106653
106553
106764
106425
106088
106193
106103
106251
105775
106492
106724
106136
106205
106263
106032
106739
106761
106072
105942
106063
106009
106096
106073
106074
106065
105974
106033
105886
106052
105953
106161
106787
106461
104619
106345
106140
102439
96430.5
87460.6
74606.3
16527.5
27765.8
27649.8
27184.5
27213.2
20889.3
41494.6
41482.3
40770.6
41611.7
41879.1
41356.3
42224.8
41949.3
56983.3
56674.4
56730.4
57307.2
57928.4
55955.7
55367.2
73321.4
73178.1
72567.6
72413
85889.3
85909
85636
79574.9
85731.4
96694.2
96572
95929.3
95610.3
102096
102565
102333
102372
95698.8
95685.9
102275
102751
102921
100617
96805.2
85852.6
73213.1
55792.2
40904
40397.9
41332.5
40644.4
39778.3
56627
56489.8
57145
73194.2
73038.4
73554.4
75300.8
75732.7
87346.2
96219.1
102218
105990
108196
109409
110036
110334
110455
110485
110461
110452
110399
110314
110259
110255
110258
110228
110181
110095
110007
110033
110037
110004
109981
109921
109871
109836
109862
109874
109843
109811
109792
109760
109703
109686
109728
109688
109677
109707
109693
109717
109775
109765
109740
109697
109694
109738
109760
109787
109762
109756
109806
109845
109897
109948
110010
110117
110165
110215
110279
110374
110434
110461
110490
110481
110411
110185
109698
108610
106792
102709
97077.7
85497.8
74139.6
48431
48634.6
48799.4
40621.4
41299
49036.7
55665.6
55793.5
54269.2
80210.1
55406.7
40067.4
40717
48060.9
41512.1
53039.8
54453.5
55856.3
56566.3
72853.1
72233.8
85979
86180.7
86352.7
72450.1
73595.8
80769.3
74018.6
72720.1
85832.1
85291.6
86044
96398.7
95741.9
95451.8
96015.6
102294
102350
101657
105758
106243
108395
108791
109694
110044
110316
110484
110550
110558
110578
110555
110498
110507
110522
110509
110493
110494
110512
110498
110500
110497
110480
110500
110511
110509
110500
110494
110486
110484
110485
110443
110437
110485
110480
110466
110452
110442
110436
110440
110444