/*--------------------------------*- C++ -*----------------------------------*\
  =========                 |
  \\      /  F ield         | OpenFOAM: The Open Source CFD Toolbox
   \\    /   O peration     | Website:  https://openfoam.org
    \\  /    A nd           | Version:  7
     \\/     M anipulation  |
\*---------------------------------------------------------------------------*/
FoamFile
{
    version     2.0;
    format      ascii;
    class       surfaceScalarField;
    location    "18.8";
    object      phi;
}
// * * * * * * * * * * * * * * * * * * * * * * * * * * * * * * * * * * * * * //

dimensions      [0 3 -1 0 0 0 0];

internalField   nonuniform List<scalar> 
44249
(
-0.0026989
0.000773927
-0.000946347
-0.000108247
-0.000264477
-0.00341317
0.000667377
-0.000845108
9.09347e-06
0.0008815
-0.00293224
0.000616502
-0.00081937
5.53487e-05
-0.000335094
-0.00372558
0.00054242
-0.000766776
0.000196438
0.00082005
-0.00313662
0.000519601
-0.000735325
0.000235968
-0.000610543
-0.00392109
0.000469525
-0.000666632
0.000304286
0.000676357
-0.00322044
0.000451855
-0.000628732
0.000279047
-0.000803835
-0.00387402
0.000387987
-0.000536076
0.000364097
0.000436861
-0.00305406
0.000338605
-0.000470792
0.000454342
-0.00114284
-0.00360695
0.000277744
-0.000367888
0.000727692
-8.51339e-05
-0.00234977
0.000221872
-0.000354304
0.00119865
-0.00232388
-0.00214938
0.000219009
-0.00024949
0.00118471
-0.00135496
-0.00145519
0.000354406
-0.000444163
0.000837073
-0.00144183
-0.00187807
0.000287208
-0.000215971
0.00090806
-0.000556629
-0.00231114
0.000158088
7.42013e-05
0.000601286
-0.000400862
0.0002247
-0.000411764
0.00131896
-0.000449389
0.00192445
-4.71638e-05
3.0913e-05
-0.000471458
0.00191805
0.000370717
5.05715e-05
-0.000414892
0.00148966
0.000230347
0.000247131
-4.91059e-05
-0.000776576
0.000861976
0.000618021
0.00078619
-0.000864339
0.000237791
8.0231e-05
-0.0004223
-1.45669e-05
-5.68081e-05
1.95751e-05
-0.00133773
0.000207089
0.000688747
-0.000567121
-0.00123188
0.000846629
0.000971953
-0.000965395
-0.000464221
0.000598849
0.000263637
-0.000477297
-0.000192282
3.40039e-05
-0.00024776
0.000523528
0.000265808
0.000148077
0.000570669
0.000507287
0.000191099
-0.0016077
0.000919438
0.000645181
-0.000230681
-0.00086249
0.000694372
0.00059003
0.00031372
0.000358418
0.000705368
0.000864887
0.000209378
0.000113286
0.000615897
-0.000640605
0.000560204
0.000329432
0.000621985
-0.00149083
0.00077758
0.000707157
0.000116761
0.000333781
-0.0026078
-4.86215e-05
-0.000717775
-0.00328028
5.78957e-05
0.000495529
-0.00276472
8.31631e-05
-0.000678148
-0.00352543
0.000212904
0.000488113
-0.00293215
0.000233843
-0.000879752
-0.00369971
0.000298404
0.000412874
-0.00302583
0.000250369
-0.0010081
-0.00369183
0.000307853
0.000247882
-0.0028948
0.000334732
-0.00125666
-0.00344638
0.000589086
-0.000182154
-0.00226851
0.00107327
-0.00241991
-0.00213984
0.00114965
-0.00144854
-0.00139416
0.000763263
-0.00162859
-0.00169313
0.000633753
-0.000627811
-0.00203656
0.000167404
-0.000309764
0.000963151
-0.000589784
0.00106582
-0.0016078
-0.000690444
0.000421275
0.000508352
0.000645079
0.00144404
-0.000733155
-0.000448199
0.00177845
7.32041e-05
-0.000376753
0.00176284
0.00019782
-0.000131677
0.00192318
0.000211184
-0.00012444
0.00166648
0.000242911
0.000378742
-0.000364978
-0.000977641
0.0011162
0.000654266
0.000873584
0.000188757
-6.16968e-05
0.00112852
-0.000182658
-0.000139122
0.00133119
0.000189976
-0.000232215
-0.000160465
0.00157757
0.000184647
-0.000309329
-0.000121759
0.00187916
0.000181925
-0.000313585
-0.000170027
0.00206546
0.000278224
-0.000319494
-0.000145166
0.00213378
0.000254963
-0.000286492
-3.69435e-05
0.00201548
0.000259203
-0.000207696
6.66057e-05
0.00181181
0.000124046
-7.82578e-05
0.000157672
0.00157512
-8.20173e-05
3.4137e-05
0.000284358
0.000912131
7.9907e-05
0.000295346
0.000287502
0.00205811
0.00101554
-0.00107078
-0.00109093
0.00241018
-0.00056707
-0.000232124
0.000446742
0.00184703
-0.000467695
0.000639327
0.000391114
0.00137368
-0.000420156
0.000451059
0.000442091
0.000645713
0.00031704
0.000284119
0.000126454
0.00157373
0.000601506
-0.000622019
-0.000907701
0.00131135
-0.000704392
0.00067268
0.000293571
0.000873678
-0.000403623
0.000483013
0.000357856
0.00132427
-0.000624132
0.000899604
-0.000726454
0.00138303
-0.000686102
0.000201971
0.000424816
0.000863237
-0.000434161
0.000630826
0.000322606
0.00126513
-0.000610049
0.000908741
-0.000701013
0.00127291
-0.000631527
0.000197462
0.000425703
0.000776397
-0.000356485
0.000565497
0.00028695
0.00124903
-0.000535735
0.00063916
-0.000576404
0.000826046
-0.000554295
0.000683848
0.000292801
0.00133627
-0.000706114
0.000791381
-0.000595902
0.000974895
-0.000707877
0.000725046
0.0003435
0.00155852
-0.000774421
0.000855513
-0.000665194
0.00109774
-0.000777322
0.000799175
0.00043813
0.00168097
-0.000838149
0.000937602
-0.000683226
0.00118093
-0.000848406
0.000869504
0.000478045
0.00182016
-0.000924033
0.00100838
-0.000724186
0.00126653
-0.000927711
0.000927186
0.000553151
0.00187511
-0.000968959
0.00107414
-0.000714413
0.00118428
-0.000943991
0.00111098
0.000522757
0.00184165
-0.00113832
0.0011612
-0.00068092
0.000719137
0.00111244
0.000390718
-0.000381823
0.00119564
0.00129875
-0.000481511
-0.00129418
0.00190842
-0.00208414
0.00246292
-0.00109272
0.00182692
-0.00152819
0.000735639
0.000872728
0.00210647
-0.00191489
0.00261194
-0.000977452
0.000707391
0.00214024
0.000296815
-0.00103924
0.000538402
0.00242961
-0.000446384
-0.00181472
0.00116038
-0.00334511
0.00360866
-0.000886738
0.000860593
-0.00223706
0.00208956
0.000446108
0.000849049
-0.00197505
0.00244384
-0.000458238
0.000446079
0.00087936
-0.000630778
0.000153221
0.000149171
0.00106532
-0.000124543
-0.000644806
0.00116748
-9.5604e-06
-0.00101019
0.00204398
-0.000444804
-0.00018223
-0.000250245
0.00259018
-0.000119676
-0.000248169
-0.000179396
0.00308818
-0.000648852
-0.000220573
0.000370629
0.00304684
-0.000704195
-0.000963423
0.00170802
0.00252721
-0.00214674
-0.00150978
0.00417515
0.00122114
0.00061862
0.000685943
0.000830463
-0.00214134
-0.000380514
-0.00203745
-0.00475809
0.00297196
-0.00256045
-0.000816849
-0.000990768
-0.00010424
-0.0031528
0.000450503
-0.000868059
-5.888e-05
-0.00256196
-0.000781344
-0.000774342
1.90505e-05
-0.0032294
0.000416368
-0.000666048
0.000122283
-0.00273192
-0.000726593
-0.000618908
0.000131342
-0.00349555
0.000431653
-0.000545069
0.000248327
-0.00291894
-0.000909826
0.000598333
-0.000524555
0.000258836
-0.00369359
0.000382084
0.000547788
-0.000473503
0.00031768
-0.00302899
-0.00102473
0.00055466
-0.000457517
0.000262313
-0.00369838
0.000232523
0.000517029
-0.000396884
0.000316264
-0.00289972
-0.00126546
0.000482387
-0.000351698
0.000335649
-0.00344801
-0.000182201
0.000441843
-0.000294536
0.000582886
-0.00226798
-0.00241062
0.000408893
-0.000239576
0.00106097
-0.00213652
-0.00143695
0.000405048
-0.000236116
0.00113635
-0.00139095
-0.00161783
0.00047833
-0.000361101
0.000754839
-0.00168297
-0.000283288
-0.000616941
0.000569088
0.000623056
-0.00202116
-0.00029246
-0.000142376
0.000623923
0.000149037
0.000632377
-0.000565599
-0.000215645
0.000943831
0.000783907
-0.00130666
-0.000920849
0.000880401
0.000811443
-0.000478318
-0.000429611
-0.000330323
0.000283785
0.000511786
0.000415212
0.000509157
0.00039334
0.00061356
-0.00032922
0.00120024
-9.06107e-06
-0.000504412
0.00151216
6.97808e-05
-0.000183883
0.0015892
0.000254724
-0.000120614
0.00196922
0.000425219
-0.00042659
0.00219814
5.47246e-05
0.000392247
-0.000675938
0.00250142
-0.000139812
0.000400298
-0.000563853
0.00216197
-0.000233844
0.000846811
-0.000273638
-0.00157168
0.00132208
0.000935589
0.00147579
-0.00184724
0.000182752
-0.000141369
-0.00157372
-7.53954e-05
-0.000338171
-4.95258e-05
-0.000353489
0.000981223
-0.000186638
0.00125331
-0.000163024
0.00183929
-0.000221547
0.00190141
-0.000165974
0.000381843
0.00203722
7.35542e-05
4.53095e-05
0.00155846
0.000162431
0.000575177
0.0013563
0.0001663
0.000159545
0.000988634
6.8064e-05
0.000217221
0.00226256
-0.00122867
-0.00119913
0.00115376
0.00258943
-0.000476405
-0.00025897
0.000408152
0.00203018
-0.00036187
0.000353301
0.00157329
-0.000400479
0.000389076
0.00106035
-0.000324313
0.000416524
0.00158879
-0.000646452
-0.000870459
0.000988238
0.00169764
-0.000716293
0.000113709
0.000493271
0.00114732
-0.000525527
0.000370591
0.000514065
0.000229143
-7.47639e-08
0.00117897
-0.000499593
-0.000789961
0.000964443
-0.000657739
0.000185314
0.000665233
-0.000355498
0.000219953
0.00115413
-0.000545851
-0.000553703
0.000937183
-0.000623972
0.000208542
0.000445322
0.000180587
-4.57958e-05
0.0010546
-0.000441112
-0.000704434
0.000482399
0.000156577
-0.000139464
0.0011251
-0.000494709
-0.000854719
0.000818661
-0.000618961
0.000216651
0.00133195
-0.00068281
-0.000605672
0.000886591
-0.000650591
0.000317664
0.00141199
-0.000751924
-0.000612485
0.000937438
-0.000716791
0.000341866
0.00148006
-0.000830109
-0.000637518
0.000967647
-0.000799717
0.000383233
0.00154675
-0.000959769
-0.000589318
0.000623821
0.000297853
-0.000320224
0.00105598
-0.000455467
-0.00111599
0.0016331
-0.00174596
-0.000952248
0.00212036
0.00152025
-0.00123267
0.000614708
0.00072964
0.00181751
-0.00148633
-0.000896879
0.000717153
0.000283125
-0.000712611
0.000810594
-0.000484313
-0.00152525
0.00141741
-0.00275981
-0.000970839
0.00312313
0.00137291
-0.00206399
0.000580917
0.00152649
0.00114225
-0.00237426
-0.000742194
0.000290841
-0.000103351
-0.00128402
-0.000146538
-0.000248634
-0.00129019
0.000224664
-0.00242582
-0.000266244
0.00232055
0.0011324
-0.000883086
-2.70514e-05
0.00255065
-0.00154637
-0.00131277
0.00144048
0.00340621
-0.00101453
-0.000273456
0.000431527
0.00461725
-0.000898408
-0.000760413
0.00583294
-0.000326174
-0.00101187
0.00575281
0.000353373
-0.000925639
0.00390983
-0.00483213
0.00289229
0.00378125
0.00686652
-0.000158837
-0.00104382
-0.00175512
0.00969951
-0.00335315
-0.00314244
0.00366147
0.00745499
0.00422102
-0.00798797
0.00600886
-0.0115559
-0.0024334
0.00172074
0.000690256
-0.00152155
-0.000648052
-0.000600821
-0.00151097
-0.0019593
0.000787208
-0.00183175
-0.000393966
-0.000476028
-0.00174009
0.00133704
-0.00194263
-0.00825814
0.0057757
-2.53008e-06
-0.0075318
-0.00191062
-0.00888939
-0.00632441
-0.000449769
0.00460917
0.00279283
-0.00646681
-0.00550257
0.00401712
-0.00090172
-3.94194e-05
-0.00738507
-0.00459183
-0.000655501
0.00325235
0.00291042
-0.00622858
-0.00375906
0.00303515
-0.0005646
0.000129049
-0.00808273
-0.00269326
4.92108e-05
0.00240478
0.00209142
-0.00679189
-0.0019123
0.00210918
0.000877236
-0.00236683
-0.00848387
-0.000964937
0.00172114
0.0015802
-0.000645615
-0.00470392
-0.000506292
0.00123212
0.00600457
-0.0105114
-0.00789049
0.000241832
0.0015457
0.00175713
-0.000358721
-0.0111631
7.15943e-06
0.00291658
0.00255428
-0.00220596
0.0163348
-0.000445429
0.00160648
-0.0202202
0.00108759
0.0011915
-0.000924005
-0.000133156
-0.000341782
0.000400186
0.000243688
0.000785596
0.00115307
0.000262634
0.000582106
-0.00103584
0.00101927
-0.000145784
-0.000769664
0.00140748
0.000346646
-1.92449e-05
-0.00071561
0.0017999
3.85291e-05
3.77847e-05
-0.000468723
0.001401
-0.000210275
0.000508926
0.000100247
-0.00101204
0.00102583
0.000522792
0.000864384
-0.0011404
-2.32561e-05
-5.87453e-05
-0.000806928
-1.19224e-05
-0.000283058
0.000114582
-0.000291043
0.000922428
-0.000305125
0.00108295
-0.00010268
0.00118487
0.000129522
0.00143774
0.00038144
-0.000209146
0.00182302
0.000356549
-0.000349719
0.00213778
0.000388993
-0.000303653
0.00258989
0.000523067
-0.000128612
0.00245793
0.000398648
-0.000169753
-9.70472e-05
0.00260146
0.000279179
9.0511e-05
-0.000513391
0.00222989
7.03712e-05
0.000285375
1.56082e-05
0.0020512
9.62056e-05
-0.000100953
0.000183211
0.00184765
-1.71016e-05
-1.50637e-05
0.000235477
0.00162985
-0.000253793
0.000211049
0.000260286
0.00105065
0.000246163
0.000225515
0.000107249
0.00064767
0.000333138
-8.87096e-05
0.000158328
0.00144648
-0.00101687
-0.000775787
0.00099362
0.00162137
-0.000691395
0.000177256
0.000338828
0.00107019
-0.000449072
0.000724392
0.000275469
0.000480756
0.000408581
0.000191236
-1.07273e-05
0.00106922
0.000642692
-0.000465956
-0.000765398
0.000842981
-0.000639213
0.000690594
0.000174378
0.000343053
0.000465848
0.000142343
-0.000108648
0.000763382
-0.000452402
-0.000695437
0.000727235
0.000870079
-0.000613121
0.000313764
0.000192162
0.000348274
0.000514356
0.000101982
-9.49648e-05
0.00079786
0.000647516
-0.000424379
-0.000672928
0.000642176
-0.000557267
0.000611712
0.00010071
0.00108018
-0.000638632
0.000761248
-0.000560937
0.000703324
-0.000621257
0.000776113
0.000221471
0.00104068
-0.000738896
-0.000634884
0.001036
0.000965679
-0.000646074
0.000330347
0.000390165
0.0011715
-0.000794149
0.00137159
-0.000783767
0.00103292
-0.000708183
0.000405895
0.000440254
0.00122228
-0.000864242
-0.00081665
0.00149099
0.00105934
-0.000767196
0.000461824
0.000467629
0.00122058
-0.000905112
-0.000793431
0.00153671
0.00111935
-0.000798547
0.00040988
0.000489154
0.00137584
-0.0010028
0.00146485
-0.000719034
0.000542112
0.00101795
0.000205014
-0.000390042
0.000745491
0.00121008
-0.000406273
-0.00100749
0.00122625
-0.00165341
-0.000873819
0.00204568
0.00119099
-0.00121998
0.000475213
0.000779104
0.00131475
-0.00142711
0.00210432
-0.000801559
0.000465617
0.00155646
7.98882e-05
-0.000788069
0.000149992
0.00189772
-0.000370291
-0.00121213
0.000770325
-0.00249704
-0.000770969
0.00264692
0.000569695
0.00147453
2.20437e-05
-0.00129662
-0.0007181
0.0029253
-0.000298153
-0.00133974
-0.000806003
-0.00265355
-0.000161941
0.00290282
-0.000335712
-0.00295411
-4.58382e-05
0.00252904
-0.00034948
0.00175162
-0.00171219
-2.72236e-05
0.00163583
-0.00177231
-0.000421178
0.000207763
0.00348788
0.00117747
-0.00127852
0.00368422
-0.00196279
0.000548005
0.00121758
0.00370978
0.000713121
-2.6823e-05
-0.000712764
0.00318225
-0.00104743
0.00145871
0.000115304
0.00382596
-0.000995017
0.00061892
-0.000268385
0.00599164
-0.00192218
-0.000536347
0.000291983
0.00913586
0.000496146
-0.00221707
-0.00142451
0.0123642
0.000124789
-0.00351535
0.00796534
-0.00904207
0.00690464
0.00653419
0.0221369
-0.00645618
-0.00498146
-0.00273571
-0.0200735
-0.00610209
-0.0127109
-0.0246706
-0.00580982
-0.00826443
-0.0126887
-0.00316353
-0.0063379
-0.00816393
-0.00170004
-0.00566711
-0.00555752
-0.00113989
-0.00438909
-0.0040713
-0.000860644
-0.00376256
-0.00386929
-0.000492536
-0.0029486
-0.00340986
-0.000835964
-0.00088042
-0.00170313
-0.000645688
0.00135272
-0.0015591
-0.00105599
0.000381115
-0.00115686
0.000348321
0.000672873
-0.00124465
-0.000370889
-0.000215277
0.00140906
-0.0014314
-0.00156925
0.00203748
-0.00153901
-0.000798991
-0.00121932
-0.00048823
0.000849994
-0.00143437
-0.000554267
-8.15482e-05
0.00154422
0.00140871
-0.000743118
-0.00136086
-0.00105519
0.000461528
0.00181616
-0.00107757
-0.000387833
0.000639955
-0.00111175
-0.000477967
0.00276479
0.00355356
-0.00172257
3.14144e-06
-0.0011955
0.00270861
-0.000415179
0.000740445
0.000516851
0.00147977
-0.00127349
-0.00207625
-0.00316269
-0.00167987
0.00268831
-0.00068052
0.0012731
-0.002375
-0.00149596
-0.000527848
0.0011251
0.000108252
-0.00287469
-0.00130688
-0.000449895
0.000976929
0.00127759
-0.00219386
-0.00118947
-0.000374603
0.00087158
9.28043e-06
-0.00249753
-0.00105408
-0.000338831
0.000656847
0.00103798
-0.000966774
-0.000515733
-0.00106367
-0.00782344
-0.000975696
-0.000599746
8.14051e-05
-0.000121679
0.00207471
-0.000377757
0.00246126
0.00217426
0.00073534
-9.08989e-05
3.5845e-07
0.00124444
0.0012648
-0.00199301
0.000161136
-0.000601277
-0.000418907
0.00188401
-0.000484068
0.00237988
0.00201794
0.0017438
0.000166063
-0.00018362
-0.000880131
-0.00704719
-0.000637533
0.000349194
0.00202021
0.000166244
-0.00137594
-0.000228867
-0.00265919
0.00232226
-0.000499555
6.58879e-05
0.000285523
-0.00246219
-0.000183935
-0.000268529
0.000249482
4.66309e-06
-0.00273586
-0.000302449
-3.22321e-05
0.000118174
0.000489181
-0.00249693
4.22896e-05
-0.000270229
5.36567e-05
-6.56046e-05
-0.00269281
-0.00014744
-2.56433e-05
-6.70189e-05
0.000435196
-0.00238504
0.000198414
-0.000451628
-0.000125534
7.02454e-05
-0.00255748
2.13386e-05
0.000199734
-0.0002242
0.000174988
-0.00230095
0.000288202
-0.000672778
-0.000204362
0.000331897
-0.00249883
2.01998e-05
0.000223736
-0.000205256
0.000158806
-0.00199369
0.000267844
-0.000947953
-0.000174355
0.000349011
-0.00207844
0.000148636
7.39044e-05
-0.000100265
-3.77886e-05
-0.0018702
0.000576632
-0.000675543
-0.000256933
0.000147413
-0.001987
0.000132753
0.000411715
-0.000271744
-0.000156089
-0.000947678
-0.00114855
0.000337613
7.10077e-05
-0.000299535
0.00065234
-0.00136842
0.000227361
0.000584924
-0.00104385
-5.45117e-05
0.00149117
-0.0012167
5.12575e-05
0.000381342
0.000275205
0.00176103
2.91436e-05
-0.00212004
0.00193372
-0.00175888
-0.000319704
0.00042003
0.00161968
0.00068158
0.00139367
0.00109012
0.000962308
-0.000320745
-0.000111989
0.00073666
0.000855992
-0.00037579
-0.000126689
0.000878517
0.00020275
-0.000130405
-0.000214247
0.000874349
-0.000199417
0.000194262
9.28622e-06
0.000747983
-0.000215097
0.000213748
0.000127679
0.0007986
-1.73261e-05
-1.35266e-05
-1.98385e-05
0.000984412
0.000120946
-0.00013198
-0.000174882
0.00119866
6.30298e-05
-0.000106924
-0.0001705
0.00126914
-9.59973e-05
4.49154e-05
-1.95776e-05
0.00112841
-0.00024349
0.000189303
0.000194675
0.000880104
-0.00022043
0.000219722
0.000248731
0.000702772
-0.000108816
0.000119319
0.000166488
0.000701488
1.66942e-05
-3.22445e-05
1.64424e-05
0.000799337
9.3641e-05
-0.000136944
-5.5001e-05
0.000922982
0.000129715
-0.00018017
-7.3696e-05
0.00102836
0.000107843
-0.000168912
-4.4867e-05
0.00108964
5.29104e-05
-0.000126174
1.13694e-05
0.000908271
0.000141915
-6.00758e-05
9.88183e-05
0.00100953
0.00171989
-0.000772273
-0.00104981
0.00138166
0.000191461
-0.000470614
-9.38957e-05
0.00134926
0.000171141
-0.000240247
0.000100555
0.00126951
0.000161099
-0.000223607
0.000141265
0.00116781
0.00017828
-0.000237853
0.000160239
0.00105515
0.000190928
-0.000257017
0.000177681
0.000795653
0.000233101
-0.000175754
0.00020101
0.00116197
0.00164396
-0.000927656
-0.00108401
0.0016516
-0.00107713
0.000447798
0.000137981
0.00162832
0.000176849
0.000399158
-0.000554347
0.00158729
0.000294123
-0.000605737
0.000351214
0.00122429
0.000402542
-0.000437529
0.000396557
0.00185862
-0.00193889
-0.00173254
0.00267619
-0.00318434
-4.1855e-05
-0.0032829
0.000472226
-0.000329864
0.000388555
0.000309027
0.0011462
-0.000597558
-0.000228731
0.00134097
0.000188536
-0.000349478
-3.38535e-05
0.00115933
-3.81657e-06
0.000538808
-0.000353301
-0.000742491
0.000805133
0.000488467
0.000608258
-0.000759384
0.000187917
-0.000174803
9.81562e-06
-0.000180351
0.000220373
-0.000112512
0.00100601
-0.000616921
0.00127701
0.000229747
-0.000462965
0.00157101
0.000266782
-5.18972e-05
0.0016798
-0.000221594
0.000274434
-0.000161651
0.00195817
-0.000443069
0.000366215
-0.000201573
0.00168309
-0.000425291
0.000791369
-9.1084e-05
-0.00137798
0.00105842
0.00073224
0.00127028
-0.00145145
-7.23752e-05
-0.000279727
-0.001277
-0.000230288
-0.000387403
-0.000145699
-0.000327212
0.00082209
-6.36275e-05
0.0010399
-9.166e-05
0.0014846
-0.000128251
0.00168753
0.000509899
-0.000189923
0.00185089
0.000345518
-0.000110519
0.00192495
0.00020035
4.4366e-06
0.00191631
-5.43333e-05
0.000132966
0.00144813
0.00016664
0.000397315
0.00126722
2.21275e-05
0.000141243
0.000880604
-3.93485e-05
0.000171727
0.00185865
-0.00120876
-0.00108339
0.00131396
0.0019747
-0.000624907
0.000216871
0.000291601
0.00170631
-0.000298808
0.000130175
0.000436665
0.00117997
-0.000413575
0.000247764
0.000542851
0.000205268
-1.77955e-05
0.00110838
-0.000615098
-0.000851981
0.000901368
0.00119433
-0.000655304
0.000247126
0.000321779
0.000433543
0.000186683
-6.59257e-05
0.000892229
-0.000525182
-0.000776957
0.000843258
0.000983663
-0.000657189
0.000217767
0.000347484
0.000357667
0.000121032
-0.000108987
0.000788806
-0.000502029
-0.000723444
0.000794148
0.000927548
-0.000659006
0.000346573
0.000173189
0.00037543
0.000104088
-0.000109946
0.000857779
-0.000425812
-0.000695648
0.000405104
7.53049e-05
-0.000244579
0.000929972
-0.00045705
-0.000807226
0.000455502
9.95923e-05
-0.000271929
0.00101941
-0.000486194
-0.000872406
0.000488596
0.00011777
-0.000295924
0.00106303
-0.000504893
-0.000934368
0.000501574
0.00012011
-0.000326701
0.00105319
-0.000499832
-0.000957509
0.000451903
0.000130293
-0.000328454
0.000676495
-0.000382363
-0.000845679
0.00118915
-0.00142806
-0.000793387
0.00170835
0.000831082
0.000494535
0.000342209
-0.000479439
0.0011251
-0.000687821
-0.00126073
0.000426687
6.37626e-05
-0.000586433
0.000399897
-0.000389662
-0.00101146
0.000915865
-0.00187824
-0.000779862
0.00214168
0.000637297
0.00102995
0.000128743
-0.000880835
-0.000210464
-0.00045625
-0.00119421
0.00041744
-0.0024909
-0.000693756
0.00255634
0.000380898
0.00157663
-0.000199079
-0.00134152
-0.000764093
-0.000374335
-0.00113546
-0.000630764
-0.00262159
-0.000466956
-0.00221047
-0.000134747
-0.00139048
-0.000610251
-0.000209641
-0.000649072
0.000233584
-0.000344351
-0.000631112
0.000806978
-0.00145838
-0.000306391
0.000308415
-0.000194056
-0.000538336
0.00301417
-0.0016118
-0.000370781
-0.00122575
0.00260765
-0.000422757
0.000407195
0.00135709
0.00102516
0.000614143
-0.00038921
-0.00099431
-0.00166537
-6.3229e-05
0.00407969
-0.000756401
-0.000719431
-0.00262002
0.0015304
-0.000691401
0.00260312
-0.000629695
-0.00357199
0.00157037
0.00245611
-0.00310121
-0.000437289
0.00364272
0.00135144
0.00433748
0.00078241
-0.000153406
-0.00132406
0.0035153
0.00206398
-2.63064e-05
-0.00121646
0.00133665
0.00278319
0.00231957
-0.00292541
0.00271136
-0.00164004
0.00046436
-0.00019961
0.00585608
-0.00304978
-0.000459674
0.000364072
0.00801477
-0.00383022
0.00313164
-0.00146147
0.0141047
-0.00969617
0.0058927
-0.00228821
-0.00792195
0.013141
-0.00380704
-0.00596417
-0.00842532
-0.00169907
-0.00563184
-0.00484229
-0.00115929
0.0044844
-0.00421681
-0.00541007
-0.000490428
-0.00485296
-0.000863158
-0.00458128
-0.0031978
-0.0011466
-0.00405188
-0.00402243
-0.00037816
-0.00398392
-0.00309794
7.92952e-05
-0.00194799
-0.000644641
0.00116146
-0.00255395
0.000963105
-0.00164459
-0.00155127
0.0002839
0.00320399
-0.00179138
-0.00109573
-0.00297524
-0.000295559
-0.000802187
-0.00178205
-0.000602393
-0.00103387
-0.00164471
0.000315335
0.00164992
-0.00179756
-0.000598161
-0.000289536
-0.000304071
-0.000350429
0.00142533
-0.0013309
-0.000686606
0.000287336
-0.000742304
0.000362429
0.0019567
-0.00199764
-0.000538114
-0.000164193
-0.000645496
-0.000374844
0.00125171
-0.000198387
-0.00158648
-0.000113185
0.000788879
-0.000143517
4.98709e-05
0.00131997
-0.000214892
-0.00106161
0.00110506
-0.000384422
-0.000480867
0.000538034
-0.000322899
-0.000224707
9.59145e-05
-0.000429685
-0.000854125
0.00224833
-0.000576027
-0.000380258
-0.0011972
0.00439517
-0.00052367
-0.00162507
0.0038554
-0.000504001
0.000625236
0.00210875
-0.000561645
0.000583045
0.00172357
-0.000892326
-0.00161483
-0.00100516
-0.00424435
0.000595441
-0.00264041
-0.00162888
-0.00370394
-0.00150952
-0.00218781
0.00060748
0.00254749
-0.00298731
-0.000388193
-0.00082088
-0.00187144
0.00236136
-0.00327025
0.000563929
-0.00170041
-0.000627596
0.00204481
-0.00246381
-0.00160269
-0.000393046
-0.000735049
0.0019217
-0.00287442
-0.00141704
-0.000262114
0.000405276
-0.00218296
-0.00126439
-0.00015088
-0.000776146
-0.00265719
-0.00109459
-0.000123792
0.000382173
-0.00207618
-0.0010079
-9.10098e-05
-0.000675155
-0.00257364
-0.000853668
-0.000121612
0.000415615
-0.00171461
-0.000437667
-0.000786123
-0.000153824
0.00039742
-0.000639605
-0.000536663
0.000155336
-0.000753622
-0.00173885
-0.00969972
-0.00169883
-0.00088871
0.00987712
0.000946286
0.0042963
-8.47029e-05
0.00208584
-0.00116206
-0.000218425
0.00198202
-0.000709009
-0.00237069
0.00220989
-0.000430473
-5.02833e-06
0.000377032
7.11035e-05
-0.000281828
0.000324712
7.73672e-05
-5.23137e-06
-0.0029516
8.02287e-05
0.0028695
-0.00152315
0.00173836
-3.27293e-05
-0.00128802
-2.87105e-05
-7.85255e-05
-0.00108095
-3.69809e-05
-7.81955e-05
-0.000972936
-4.28996e-05
-4.99833e-05
-0.00110062
-3.10082e-05
4.849e-05
-0.00150142
-1.05525e-05
0.000189728
-0.00192406
-2.76986e-06
0.000180885
-0.00199388
-1.81166e-06
-2.52271e-05
-0.0016904
3.68346e-06
-0.000244842
-0.00134945
1.31593e-05
-0.000233713
-0.00124307
2.55715e-05
-0.000149704
-0.00145437
3.23931e-05
-3.65078e-05
-0.00147794
2.46812e-05
-0.00020078
-0.00108718
4.39701e-07
-0.000188622
-0.000702945
-1.39821e-05
0.000485585
-0.000200817
6.02821e-05
0.000399823
0.000305729
7.3045e-05
-0.000549948
0.00102779
9.84901e-05
-1.34985e-05
-0.000806808
-0.000595013
0.000361075
-0.000858015
-0.000544013
-0.000431673
-0.00137794
-0.000519538
0.00202013
-0.000508129
-0.00153621
-0.000875815
-0.000782909
0.00198105
-0.000841419
0.000860163
0.000301638
-0.000723856
-0.00131361
0.00180208
0.000950546
-0.00116537
-0.000727521
0.00142238
0.00151714
-0.000702645
-0.000434925
0.00116571
0.000560524
-3.21177e-06
-0.000300641
0.00117367
-0.00069404
0.000693594
-7.5706e-06
0.00121433
-0.000919133
0.00077294
0.000105468
0.00125877
-0.000493121
0.000504885
-5.62939e-05
0.00123128
4.20208e-06
0.000193779
-0.000170614
0.00123499
0.000112006
8.93683e-05
-0.000205258
0.00130258
-2.35115e-05
9.87963e-05
-0.000143098
0.00141761
-0.000170277
0.000116373
-6.13996e-05
0.00155288
-0.000147553
5.70933e-05
-4.51517e-05
0.00164265
4.81983e-05
-7.08646e-05
-6.75107e-05
0.00168362
0.000274946
-0.000210014
-0.000106355
0.00165948
0.000457334
-0.000323552
-0.000110169
0.00160115
0.000558026
-0.000394945
-0.00010534
0.0015192
0.000581254
-0.000426241
-7.3699e-05
0.00143206
0.000554825
-0.000436494
-3.19015e-05
0.00132721
0.000552374
-0.000449452
1.17658e-06
0.00118802
0.000616204
-0.000476349
-1.48259e-06
0.00110917
0.000593539
-0.000517984
2.44098e-06
0.00106992
0.000603399
-0.000574624
9.57795e-06
0.00103469
0.000655738
-0.000638173
1.67229e-05
0.000966066
0.000706614
-0.000679723
4.0769e-05
0.000927793
0.000630929
-0.000701559
0.000107977
0.000360179
-0.000503043
-9.55668e-06
0.00099274
-0.00135121
-0.000904968
0.00162292
0.00174376
-0.00239462
0.00166343
-2.1735e-05
0.00182989
-0.00229612
0.00188931
0.000318878
0.00191687
-0.00254297
0.00201643
0.000437877
0.00153968
-0.00289055
8.01941e-05
0.00134294
-0.00308617
-1.9825e-06
0.000504806
-0.00240451
-6.33342e-05
-0.00303335
-0.00115245
-0.00646541
0.00425143
0.00489447
-0.00445951
-0.0126194
-0.00470304
-0.00623736
0.00328968
-0.00432027
-0.00252495
-0.00640875
0.00495588
0.000805862
-0.00452512
-0.00129506
-0.00454408
-0.0011968
-0.00419013
0.00446562
-0.000945927
-0.00613193
-0.000148204
-0.00328237
-0.000181633
0.00519838
-0.00378671
-0.00315476
-0.00142094
0.00133861
0.000890262
-0.00562718
-0.00122137
0.000255382
0.00175059
0.00105475
-0.00297999
-0.00630481
0.00567939
0.00579154
-0.00781412
0.00439917
-0.00176622
-0.00161536
0.00416824
0.00158889
-0.000845629
-0.000715862
0.0011513
0.000552461
0.000331141
-0.000446258
-0.000770668
0.000498829
0.000595323
0.000827793
0.000798154
3.18636e-05
0.000895992
0.00101395
-0.000481356
0.00122116
0.000883871
-0.000731892
-0.000477257
0.0012327
-6.21792e-06
0.000274989
-0.000280284
-0.000812526
0.000754777
0.000542821
0.00074767
-0.000702805
4.16206e-05
-0.000157506
-0.000223875
0.000373476
3.15846e-05
0.000304823
0.000155434
0.000217977
-0.000122164
0.00046023
-0.000218175
0.0013058
-0.000265093
0.00148287
-0.000213902
0.00030027
-0.000263436
0.00159966
-0.000395896
0.000281796
-2.70432e-06
0.00170447
-0.000428268
0.000344723
-2.12926e-05
0.00136837
-0.000410303
0.00068069
6.56724e-05
-0.00115304
0.000888826
0.000593206
0.00103928
-0.00120786
-8.93318e-05
-0.000266372
-0.00113133
-0.000213845
-0.000291083
-0.00106709
-0.000186288
-0.00027392
-0.000110423
-0.00036546
0.000769317
-0.000161534
0.000895519
-4.57427e-05
0.000995813
-3.97954e-05
0.00136994
-9.73967e-05
0.0017988
-0.000145332
0.000507672
0.00194421
0.000338091
-0.000321831
-0.000161753
0.00211099
0.000269667
-0.00017764
-0.000258941
0.00211798
0.000229584
-0.000260576
2.38299e-05
0.00215777
0.000143547
-0.000407093
0.000223559
0.00181913
-0.000143024
0.000378872
0.000102573
0.00134935
-5.34006e-05
0.000234351
0.000288599
0.00117073
4.20222e-05
-3.37904e-05
0.000170192
0.000770234
0.000311227
-7.61364e-05
0.000165176
0.00159886
-0.00111065
-0.000950869
0.00123265
0.00160652
-0.000603533
0.000313275
0.000282188
0.00134189
-0.000398486
0.000242321
0.000420429
0.000497192
0.000679432
0.000210571
-4.56879e-05
0.000944954
-0.000541999
-0.00082024
0.000914202
0.00101453
-0.000701375
0.000261634
0.000369686
0.000343794
0.000682482
0.000140268
-0.000152441
0.000730829
-0.000468763
-0.00075548
0.000836918
0.000899209
-0.000717531
0.000124903
0.000423736
0.000318706
0.00067726
6.00942e-05
-0.000157281
0.000725369
-0.00050957
-0.000728952
0.000831586
0.000879302
-0.000654844
0.000113487
0.000386942
0.000354919
0.000555589
8.16917e-05
-0.000113295
0.000749336
0.00064787
-0.000416944
-0.00062553
0.000370091
0.000589411
4.03568e-05
-0.000250975
0.000803914
0.000726492
-0.000435469
-0.000725034
0.000392446
0.000649391
4.66088e-05
-0.00028499
0.00083619
0.00078568
-0.000455176
-0.000774435
0.000395685
0.000702362
4.96039e-05
-0.000311937
0.000806051
0.00082244
-0.000443007
-0.000789986
0.000344836
0.000735596
4.39276e-05
-0.000318794
0.000494955
0.000898119
-0.000343517
-0.000704897
0.000970911
-0.00123641
-0.000706463
0.00146646
0.000703907
0.00042397
0.000254613
-0.000412142
0.000898577
0.00144559
-0.000616614
-0.00102394
0.000331502
0.00103374
-8.96762e-06
-0.000458292
0.000327763
0.00114778
-0.000360699
-0.00078355
0.000755921
-0.00141508
-0.000711915
0.00169834
0.000554144
9.36838e-05
-0.000616156
0.000723678
5.41238e-05
0.00185679
-0.000444647
-0.000912396
0.000509142
-0.00168801
-0.000704536
0.00193703
0.000380468
0.00106964
-0.000120049
-0.000821413
-0.000680374
0.00215705
-0.000309026
-0.000787412
-0.000924475
-0.00128097
-0.00021032
0.0017349
-0.000238323
-0.00176102
-0.000250774
0.00132496
-0.000134036
0.00116956
-0.00041149
-0.000862735
-0.000491783
0.000833609
-0.000111202
-0.000364919
-0.000283039
6.98666e-05
-0.000349371
7.01879e-05