/*--------------------------------*- C++ -*----------------------------------*\
  =========                 |
  \\      /  F ield         | OpenFOAM: The Open Source CFD Toolbox
   \\    /   O peration     | Website:  https://openfoam.org
    \\  /    A nd           | Version:  7
     \\/     M anipulation  |
\*---------------------------------------------------------------------------*/
FoamFile
{
    version     2.0;
    format      ascii;
    class       volVectorField;
    location    "18.8";
    object      U;
}
// * * * * * * * * * * * * * * * * * * * * * * * * * * * * * * * * * * * * * //

dimensions      [0 1 -1 0 0 0 0];

internalField   nonuniform List<vector> 
15284
(
(-0.0506401 -0.0135003 -0.183526)
(-0.0455685 -0.00854702 -0.189186)
(-0.0439931 -0.00726839 -0.194949)
(-0.0405123 0.00368654 -0.20942)
(-0.0390804 0.00802775 -0.209207)
(-0.0368074 0.0143421 -0.223659)
(-0.0349986 0.0143907 -0.216351)
(-0.0303242 0.0224696 -0.226685)
(-0.0263296 0.0351267 -0.207868)
(-0.0235903 0.0624505 -0.220212)
(-0.022988 0.107055 -0.178981)
(-0.0178544 0.107894 -0.140001)
(-0.0243018 0.0996665 -0.104978)
(-0.0154107 0.0838759 -0.0935699)
(-0.00442813 0.0405453 -0.121711)
(-0.0236492 0.151907 -0.191126)
(0.00881587 0.0251859 -0.119178)
(0.00516876 0.0225442 -0.132207)
(0.00223231 0.0107266 -0.13599)
(0.0157407 0.013363 -0.121739)
(-0.00636609 0.00886295 -0.12158)
(0.00134696 0.0125655 -0.102136)
(-0.0316332 -0.011991 -0.08329)
(-0.015566 -0.00327572 -0.116288)
(-0.0295352 0.0234892 -0.191935)
(-0.053804 0.00190204 -0.088881)
(-0.0156477 0.00425064 -0.129644)
(0.00818098 0.0209899 -0.0588364)
(0.0541026 0.0173788 -0.0950279)
(0.0911142 0.0378436 -0.184055)
(0.0303794 -0.00901585 -0.0670757)
(0.0619497 0.00740404 -0.102951)
(0.0330397 0.0309433 -0.112104)
(0.0357984 0.0217602 -0.127699)
(0.0162268 0.0208408 -0.115577)
(0.0152787 0.023101 -0.134206)
(-0.0541244 -0.00855049 -0.185502)
(-0.0456257 -0.00428923 -0.191281)
(-0.0410924 -0.00457989 -0.191629)
(-0.0344509 0.00569439 -0.207545)
(-0.033687 0.00857347 -0.203441)
(-0.0301287 0.0146102 -0.22)
(-0.0301683 0.0132399 -0.21093)
(-0.025794 0.0200116 -0.224801)
(-0.0246989 0.0305081 -0.20531)
(-0.022714 0.0574505 -0.218406)
(-0.0224367 0.104177 -0.178361)
(-0.0258148 0.105887 -0.14427)
(-0.0384715 0.0905696 -0.107991)
(-0.0347154 0.0677395 -0.0911991)
(-0.0238476 0.0154414 -0.109666)
(-0.0274087 0.135079 -0.177827)
(-0.122043 0.0699653 -0.0500433)
(-0.0102382 0.0166936 -0.0841839)
(-0.093294 0.0427842 -0.114567)
(0.0104488 0.0282577 -0.134772)
(0.0262127 0.0233347 -0.141428)
(0.0156687 0.0149868 -0.128333)
(0.0015599 0.0129842 -0.138326)
(0.0291271 0.0193167 -0.148475)
(0.0167743 0.0212606 -0.15287)
(0.0144666 0.0115695 -0.121287)
(0.0131857 0.0109151 -0.137293)
(0.024573 0.00848562 -0.143663)
(0.027297 0.00829206 -0.15876)
(0.0273092 0.00608648 -0.175366)
(0.0217273 0.000995906 -0.186701)
(0.0123765 -0.00471474 -0.191249)
(0.00126642 -0.0100114 -0.190018)
(-0.00946032 -0.0152031 -0.185751)
(-0.0158053 -0.0208849 -0.179251)
(-0.02355 -0.0303207 -0.175332)
(-0.031658 -0.0339358 -0.164363)
(-0.0397917 -0.0329652 -0.150756)
(-0.045702 -0.031458 -0.136901)
(-0.0478599 -0.0329768 -0.128196)
(-0.052148 -0.0372826 -0.116145)
(-0.0549028 -0.0356885 -0.107632)
(-0.0574479 -0.0336131 -0.100456)
(-0.0589457 -0.0356144 -0.0941778)
(-0.0574745 -0.0347611 -0.0898428)
(-0.0563307 -0.033991 -0.0858083)
(-0.0598292 -0.0368829 -0.0853546)
(-0.060359 -0.0384074 -0.08458)
(-0.0624268 -0.0396998 -0.0831438)
(-0.06611 -0.0450844 -0.0838758)
(-0.0689523 -0.047937 -0.0847886)
(-0.0739754 -0.0519073 -0.085938)
(-0.0766001 -0.0544988 -0.0870943)
(-0.0828578 -0.059102 -0.0889939)
(-0.0860933 -0.0625125 -0.0904152)
(-0.0928198 -0.0666316 -0.0920911)
(-0.0969024 -0.0701423 -0.0935353)
(-0.104673 -0.0741128 -0.0954308)
(-0.109966 -0.0782898 -0.0969438)
(-0.119004 -0.0819595 -0.0984056)
(-0.126493 -0.0863962 -0.0999889)
(-0.136802 -0.0886488 -0.101575)
(-0.146107 -0.0960281 -0.102963)
(-0.157697 -0.0958507 -0.105115)
(-0.173543 -0.091754 -0.109608)
(-0.188231 -0.0942356 -0.111303)
(-0.207321 -0.0887197 -0.115641)
(-0.227087 -0.0864548 -0.113616)
(-0.249062 -0.0685337 -0.11575)
(-0.275964 -0.0314148 -0.109304)
(-0.297696 -0.0083676 -0.0968528)
(-0.300853 0.0341345 -0.0928353)
(-0.312104 0.0601914 -0.0724033)
(-0.307349 0.0804826 -0.094388)
(-0.305738 0.0929384 -0.0294632)
(-0.384078 0.0661978 0.00134046)
(-0.437973 0.0293898 0.0310929)
(-0.536374 -0.0530495 0.0680568)
(-0.642921 -0.143731 -0.00413766)
(-0.705065 -0.360912 0.00177109)
(-0.708733 -0.371005 0.0284236)
(-0.719893 -0.415746 -0.0790725)
(-0.804919 -0.506359 -0.0459456)
(-0.0704259 0.00877164 -0.186436)
(-0.0603196 0.00800355 -0.186922)
(-0.0542038 0.0033728 -0.181837)
(-0.0459009 -0.000553826 -0.188424)
(-0.0419553 0.000822095 -0.188615)
(-0.035479 -0.00841523 -0.205676)
(-0.0348131 -0.010573 -0.201897)
(-0.0310718 -0.0161326 -0.219559)
(-0.0310211 -0.0142657 -0.210749)
(-0.026713 -0.0207691 -0.225332)
(-0.0257685 -0.0307621 -0.205606)
(-0.0239475 -0.0570297 -0.21866)
(-0.0236481 -0.103229 -0.178368)
(-0.0268765 -0.104715 -0.144096)
(-0.038772 -0.089771 -0.107738)
(-0.0340512 -0.067179 -0.0910644)
(-0.0224316 -0.0146961 -0.108543)
(-0.0265342 -0.133093 -0.176761)
(-0.0906378 0.0758182 -0.0294335)
(-0.0439651 0.0181406 -0.0771288)
(-0.0302182 0.020346 -0.0610736)
(-0.053411 0.0139984 -0.124603)
(-0.0536335 0.0428276 -0.0367119)
(0.015258 0.039659 -0.0947673)
(0.0200191 0.0266646 -0.136022)
(0.0240047 0.0111933 -0.128055)
(0.0338316 0.0125143 -0.128954)
(0.0332461 0.0209231 -0.146789)
(0.0323189 0.0193322 -0.16827)
(0.0325161 0.0163274 -0.18748)
(0.035895 0.0145828 -0.208104)
(0.0365683 0.0201377 -0.215677)
(0.0340371 0.0296249 -0.192624)
(0.0340982 0.0344359 -0.175731)
(0.0211114 0.0150031 -0.143551)
(0.0253206 0.0126486 -0.162941)
(0.024739 0.0102012 -0.188521)
(0.0257045 0.0053397 -0.204889)
(0.0200543 -0.000713626 -0.215526)
(0.0141753 -0.0080994 -0.217367)
(0.00523473 -0.014465 -0.213047)
(-0.00244632 -0.0204914 -0.20597)
(-0.0139178 -0.0275906 -0.195377)
(-0.0246741 -0.0294574 -0.182817)
(-0.0339391 -0.0303809 -0.166822)
(-0.0416844 -0.0285167 -0.149965)
(-0.0468142 -0.0282954 -0.137529)
(-0.0522397 -0.0332759 -0.125553)
(-0.0556234 -0.0327839 -0.11616)
(-0.056913 -0.0310267 -0.105478)
(-0.0573412 -0.0324065 -0.0991153)
(-0.0578888 -0.0317633 -0.0878673)
(-0.0558638 -0.0290079 -0.0821255)
(-0.0547463 -0.0269339 -0.0784271)
(-0.0581964 -0.030528 -0.0789481)
(-0.0588801 -0.0318495 -0.0785594)
(-0.0611916 -0.035137 -0.078786)
(-0.0652817 -0.0385907 -0.079859)
(-0.0685716 -0.0427155 -0.0812596)
(-0.0725512 -0.0452672 -0.0829559)
(-0.0757148 -0.0481651 -0.0841958)
(-0.0812077 -0.0525018 -0.0857786)
(-0.0850311 -0.0559096 -0.0871312)
(-0.0909153 -0.0592078 -0.0885646)
(-0.0955651 -0.0627289 -0.0899114)
(-0.102386 -0.0654748 -0.091353)
(-0.107993 -0.0693304 -0.092697)
(-0.116056 -0.0709384 -0.0933936)
(-0.123099 -0.0762537 -0.0946432)
(-0.131149 -0.0773822 -0.0966266)
(-0.14256 -0.075058 -0.0991201)
(-0.152767 -0.0772907 -0.0990171)
(-0.16563 -0.0746237 -0.101925)
(-0.177901 -0.0768378 -0.102583)
(-0.194084 -0.0719187 -0.107116)
(-0.214016 -0.0537945 -0.106533)
(-0.235119 -0.0422979 -0.100774)
(-0.246634 -0.0160467 -0.102347)
(-0.252508 0.0119292 -0.0885754)
(-0.261739 0.050831 -0.0897084)
(-0.255524 0.0958328 -0.0776803)
(-0.254393 0.11464 -0.0290146)
(-0.268664 0.107714 -0.00548018)
(-0.315585 0.0888001 -0.00407896)
(-0.386857 0.0485253 -0.00527606)
(-0.447799 -0.00585184 -0.00556166)
(-0.561497 -0.0727783 0.00448046)
(-0.595077 -0.127338 -0.0381908)
(-0.737805 -0.275032 -0.102453)
(-0.836715 -0.400868 -0.157791)
(-0.904298 -0.501522 -0.194697)
(-1.31858 -0.680216 -0.546113)
(-0.113618 -0.0834339 -0.223628)
(-0.108544 -0.0858106 -0.225973)
(-0.0608794 -0.128863 -0.204051)
(-0.0509487 -0.114606 -0.202475)
(-0.105545 0.011553 -0.168794)
(-0.0883895 -0.00307673 -0.146144)
(-0.0763181 -0.0130934 -0.128935)
(-0.0630504 -0.0126968 -0.116923)
(-0.0524304 -0.0114513 -0.110266)
(-0.0382758 0.000975643 -0.124568)
(-0.0249087 0.0279838 -0.119138)
(-0.0161512 0.0491233 -0.141195)
(-0.00559109 0.159941 -0.112199)
(-0.0521246 -0.0027937 -0.067135)
(-0.0547829 -0.0479931 -0.17536)
(0.0472043 0.441379 -0.223727)
(-0.0759467 0.0200906 -0.0986773)
(-0.0429964 -0.00937099 -0.0814816)
(-0.0658563 0.0751275 -0.101638)
(-0.102077 0.0963841 -0.0201517)
(-0.0290263 0.0397565 -0.069628)
(0.00108633 0.0289352 -0.0953076)
(0.00810581 0.0269408 -0.123073)
(0.0185107 0.00477511 -0.139705)
(0.0330164 -0.00288119 -0.129763)
(0.0269175 -8.03338e-05 -0.121596)
(0.0261512 0.0263771 -0.11745)
(-0.000673108 0.0421646 -0.0717083)
(-0.00731009 0.03812 -0.118484)
(0.0146658 0.0168184 -0.158511)
(0.0360844 -0.00502114 -0.118466)
(0.040289 0.00342632 -0.118402)
(0.0466616 0.0116981 -0.148239)
(0.0422178 0.0104248 -0.171382)
(0.0352682 0.00696597 -0.188749)
(0.027439 0.000623684 -0.194044)
(0.0204828 -0.0057099 -0.196088)
(0.00799331 -0.00801551 -0.188808)
(-0.00394192 -0.00968039 -0.180575)
(-0.0161013 -0.0116595 -0.173661)
(-0.0276276 -0.0136362 -0.165221)
(-0.0350385 -0.0179298 -0.155136)
(-0.0416317 -0.0206171 -0.145433)
(-0.049893 -0.0266795 -0.138976)
(-0.0536766 -0.0250654 -0.127953)
(-0.0550591 -0.0238435 -0.116918)
(-0.0555098 -0.0248571 -0.106672)
(-0.0576141 -0.0275223 -0.0930215)
(-0.0572572 -0.0245247 -0.082673)
(-0.0570467 -0.0194555 -0.0721811)
(-0.0604293 -0.0211256 -0.0736214)
(-0.0586446 -0.019944 -0.0710569)
(-0.0594499 -0.0197274 -0.0686534)
(-0.0624356 -0.0235877 -0.0721901)
(-0.0641066 -0.0244273 -0.0730665)
(-0.0689614 -0.0293156 -0.0766487)
(-0.0716383 -0.0330729 -0.078005)
(-0.0760697 -0.0355997 -0.0801812)
(-0.0783081 -0.0390736 -0.0809822)
(-0.083206 -0.0410429 -0.0826895)
(-0.0868064 -0.0445347 -0.0833123)
(-0.092384 -0.0455234 -0.0847456)
(-0.0970098 -0.0487423 -0.0853591)
(-0.102746 -0.0492278 -0.0866746)
(-0.10799 -0.0515361 -0.0866909)
(-0.11519 -0.0511789 -0.0873932)
(-0.121047 -0.0539165 -0.0870667)
(-0.128381 -0.0522211 -0.088502)
(-0.137746 -0.047874 -0.0903181)
(-0.14657 -0.0468433 -0.0896616)
(-0.155247 -0.0420065 -0.0914056)
(-0.165049 -0.0405608 -0.0879065)
(-0.180051 -0.0279732 -0.0909623)
(-0.190886 -0.00488352 -0.091664)
(-0.205753 0.00864814 -0.080241)
(-0.197806 0.0368706 -0.0825954)
(-0.184345 0.0766566 -0.0692528)
(-0.159865 0.104268 -0.0584436)
(-0.149523 0.141582 -0.044617)
(-0.125176 0.112455 -0.03381)
(-0.159486 0.117862 -0.0443192)
(-0.191971 0.122467 -0.0240672)
(-0.251445 0.107873 -0.0103582)
(-0.316631 0.0700238 0.000397806)
(-0.395777 0.01197 -0.0106347)
(-0.48382 -0.054147 -0.0610948)
(-0.572011 -0.126148 -0.092898)
(-0.732238 -0.219437 -0.14489)
(-0.755705 -0.268135 -0.233968)
(-0.882337 -0.323969 -0.414797)
(-0.955059 -0.256844 -0.639499)
(-0.839584 -0.114889 -0.63237)
(-0.63259 -0.0569875 -0.603831)
(-0.529077 -0.00209791 -0.546438)
(-0.436059 0.0190318 -0.514566)
(-0.383625 0.0459701 -0.488179)
(-0.322231 0.0819134 -0.411259)
(-0.269997 0.0932005 -0.347082)
(-0.0953174 -0.0725415 -0.216728)
(-0.0668335 -0.0813833 -0.208125)
(-0.0781663 -0.0924122 -0.211039)
(-0.0567428 -0.0839107 -0.196828)
(-0.0472742 -0.0818372 -0.191099)
(-0.0410007 -0.0891917 -0.188926)
(-0.0400895 -0.10816 -0.190785)
(-0.00065863 -0.0866574 -0.172972)
(-0.00114153 -0.0797141 -0.170347)
(-0.0202439 -0.0965011 -0.178498)
(-0.00637099 -0.0947188 -0.161989)
(-0.0062372 -0.121166 -0.155515)
(0.00501596 -0.141604 -0.168428)
(0.00324847 -0.152942 -0.232875)
(-0.042807 -0.163918 -0.257661)
(-0.0887118 -0.0245443 -0.166672)
(-0.0802016 -0.0213016 -0.159128)
(-0.0708302 -0.0220524 -0.151908)
(-0.0643411 -0.0208295 -0.1495)
(-0.0530957 -0.0227239 -0.144369)
(-0.0427484 -0.0244929 -0.141749)
(-0.0409885 -0.0122531 -0.127243)
(-0.0427405 -0.00835821 -0.12779)
(-0.0199864 0.000969031 -0.16237)
(-0.0191995 -0.00245064 -0.164861)
(-0.0114679 -0.00486931 -0.16903)
(-0.00864156 -0.00671482 -0.167713)
(-0.00211094 -0.00487136 -0.170011)
(0.00383003 0.00436179 -0.160713)
(0.0135655 0.00998431 -0.161925)
(0.0166109 0.0250167 -0.151224)
(0.0146656 0.0128342 -0.162507)
(0.0197233 0.0363603 -0.14083)
(0.0160031 0.00958345 -0.128671)
(0.033741 0.015642 -0.12515)
(0.0303687 0.033502 -0.127732)
(-0.050665 -0.010725 -0.114624)
(-0.07611 0.0312636 -0.00542048)
(-0.00745674 0.0439689 0.0812864)
(0.0055754 -0.0233111 -0.140454)
(0.0857087 0.00480572 -0.364433)
(-0.0172067 0.073442 -0.269676)
(-0.0498714 0.0712312 -0.215767)
(-0.0237617 0.0648306 -0.113711)
(0.00357658 0.0151741 -0.123285)
(0.0131033 -0.0209599 -0.14567)
(0.00673551 -0.0270249 -0.117427)
(-0.000529521 -0.00649139 -0.109832)
(0.00237498 0.0131963 -0.133741)
(0.00457352 0.0101222 -0.168236)
(0.00595603 -0.00584843 -0.195052)
(0.00424069 -0.0241056 -0.189146)
(0.00365313 -0.0261504 -0.153102)
(0.00281616 -0.0133694 -0.113341)
(0.00173591 0.00405302 -0.10179)
(-0.00176812 0.0128383 -0.113564)
(-0.00487776 0.015362 -0.132456)
(-0.00570352 0.0124412 -0.152989)
(-0.00513035 0.00742977 -0.171275)
(-0.00758239 0.00178205 -0.187414)
(-0.0175109 0.00487004 -0.184499)
(-0.0263271 0.00314583 -0.18007)
(-0.0280499 -0.00157963 -0.177001)
(-0.0301645 -0.00381023 -0.170126)
(-0.0341248 -0.00231944 -0.161627)
(-0.0392149 0.0014623 -0.152867)
(-0.0433484 0.00226439 -0.154083)
(-0.0526747 0.0083576 -0.154794)
(-0.0687786 0.00804622 -0.151643)
(-0.0771412 -0.00375346 -0.170214)
(-0.0821766 -0.0148648 -0.186186)
(-0.103592 -0.0263215 -0.226949)
(-0.143088 0.0126374 -0.232124)
(-0.218 0.023242 -0.207166)
(-0.283836 0.034454 -0.216514)
(-0.115287 0.0277729 -0.00649066)
(-0.0649602 0.0291928 -0.0877179)
(0.000631196 0.0229771 -0.102705)
(0.0389923 0.0212794 -0.118768)
(0.0317825 0.0197782 -0.105214)
(0.012005 0.0315389 -0.094468)
(0.0125182 0.0195453 -0.0819388)
(0.00281056 0.0108826 0.013715)
(0.0273198 0.0470777 -0.0824778)
(0.0217658 0.0334558 -0.118131)
(0.0258769 0.0140138 -0.127499)
(0.0328704 0.008082 -0.127417)
(0.0405384 0.00578034 -0.139687)
(0.0373567 0.00624145 -0.16242)
(0.0444552 0.00728806 -0.170481)
(0.0470289 0.00506785 -0.16578)
(0.0487188 0.00630939 -0.149762)
(0.044452 0.00803277 -0.142567)
(0.0322659 -0.000238414 -0.110229)
(0.0366067 0.00342338 -0.130698)
(0.0386305 0.000605557 -0.144923)
(0.0388053 0.000631418 -0.161137)
(0.0314419 -0.00135377 -0.174624)
(0.0220419 -0.00418961 -0.184907)
(0.00857788 -0.00634271 -0.191572)
(-0.00115807 -0.0103236 -0.190692)
(-0.012644 -0.0145785 -0.186334)
(-0.022278 -0.0180524 -0.177408)
(-0.0340473 -0.0249125 -0.172226)
(-0.0425118 -0.0254589 -0.158984)
(-0.0493404 -0.0229982 -0.142949)
(-0.0511468 -0.0206143 -0.128379)
(-0.0523677 -0.0216388 -0.117728)
(-0.0579412 -0.0255206 -0.109342)
(-0.0585634 -0.0240313 -0.100859)
(-0.0569615 -0.0231987 -0.0896932)
(-0.0584225 -0.0227716 -0.0833662)
(-0.0587767 -0.0199286 -0.0780424)
(-0.0587326 -0.0181719 -0.0717375)
(-0.0604995 -0.0194201 -0.0730438)
(-0.0615277 -0.0195543 -0.0722083)
(-0.0637102 -0.0209433 -0.0710891)
(-0.0669443 -0.0247277 -0.0738393)
(-0.0699779 -0.0282199 -0.0750648)
(-0.0739218 -0.0298686 -0.0770987)
(-0.0774309 -0.0337465 -0.0780083)
(-0.08089 -0.0347496 -0.0791074)
(-0.08476 -0.0386462 -0.079952)
(-0.0893314 -0.0385215 -0.0810881)
(-0.0938736 -0.0423751 -0.081892)
(-0.098484 -0.0413919 -0.0826057)
(-0.103536 -0.0448698 -0.0827418)
(-0.108821 -0.0444377 -0.0834143)
(-0.114828 -0.0409613 -0.084706)
(-0.122832 -0.0432094 -0.0836544)
(-0.128187 -0.0391299 -0.0857584)
(-0.135168 -0.0380414 -0.0838574)
(-0.142952 -0.0342671 -0.0854602)
(-0.152954 -0.0231071 -0.0857605)
(-0.165115 -0.01713 -0.0818306)
(-0.169094 -0.00585492 -0.0870659)
(-0.17637 0.018685 -0.0832916)
(-0.180344 0.0381643 -0.0725196)
(-0.15915 0.0598072 -0.0685481)
(-0.131121 0.0920396 -0.0498308)
(-0.100603 0.121385 -0.0284857)
(-0.08977 0.114344 -0.0408545)
(-0.07375 0.105788 -0.041242)
(-0.0631376 0.0956971 -0.0489094)
(-0.0955842 0.099999 -0.034387)
(-0.119199 0.0975207 -0.0501053)
(-0.14976 0.107523 -0.0432415)
(-0.179928 0.103914 -0.0374912)
(-0.224203 0.0870688 -0.029035)
(-0.19851 0.107052 -0.0342)
(-0.207624 0.0800981 -0.051547)
(-0.220651 0.0533374 -0.0675459)
(-0.209246 0.0869365 -0.0501203)
(-0.23812 0.0656611 -0.0643684)
(-0.272695 0.041579 -0.0720737)
(-0.322542 0.00719201 -0.0827166)
(-0.333825 -0.0128273 -0.0994081)
(-0.350429 -0.0543577 -0.146252)
(-0.377767 -0.0745055 -0.230984)
(-0.418263 -0.0744676 -0.324902)
(-0.442155 -0.0507976 -0.442621)
(-0.50613 -0.0447189 -0.510143)
(-0.422181 0.0260354 -0.440427)
(-0.355853 0.0421405 -0.451255)
(-0.306952 0.120031 -0.438208)
(-0.380387 0.0629999 -0.49203)
(-0.315186 0.113954 -0.427273)
(-0.25848 0.133191 -0.340458)
(-0.198168 0.126115 -0.297914)
(-0.151348 0.118064 -0.246431)
(-0.0926581 0.120678 -0.202285)
(-0.162799 0.115457 -0.241037)
(-0.216559 0.0936492 -0.286557)
(-0.0810992 -0.0570343 -0.219323)
(-0.0568313 -0.0634811 -0.215287)
(-0.0391885 -0.0551641 -0.206162)
(-0.045047 -0.0682246 -0.197843)
(-0.0186695 -0.0580734 -0.193585)
(-0.0238833 -0.0681873 -0.189102)
(-0.00969464 -0.0589434 -0.182929)
(-0.00798203 -0.0698253 -0.175435)
(0.0107991 -0.036581 -0.163685)
(0.0215673 -0.042572 -0.159373)
(0.0181678 -0.0416957 -0.153588)
(0.012641 -0.047676 -0.142824)
(0.0148947 -0.0619818 -0.126078)
(0.0139593 -0.0758918 -0.125055)
(-0.0169151 -0.0766479 -0.143279)
(-0.0162025 -0.115892 -0.175956)
(-0.0225652 -0.134714 -0.238755)
(-0.0233768 -0.120525 -0.264687)
(-0.0604237 -0.143743 -0.300866)
(-0.136555 -0.0626813 -0.27286)
(-0.130632 -0.0495103 -0.234925)
(-0.12374 -0.0282656 -0.20172)
(-0.11067 -0.0167707 -0.18046)
(-0.104507 -0.00866069 -0.167435)
(-0.0935033 -0.00807957 -0.15457)
(-0.0860327 -0.00581847 -0.147919)
(-0.0754746 -0.00862949 -0.139417)
(-0.0693653 -0.00851908 -0.139035)
(-0.0587496 -0.0108598 -0.135449)
(-0.0535841 -0.0118109 -0.133319)
(-0.0465793 -0.0125526 -0.127167)
(-0.0722194 -0.0137094 -0.149721)
(-0.0513693 -0.00481073 -0.143742)
(-0.0413486 -0.00581683 -0.132873)
(-0.0190103 -0.00671645 -0.142532)
(-0.0194982 -0.00193929 -0.153292)
(-0.00496832 0.0104029 -0.180659)
(0.00927062 0.00653428 -0.154091)
(0.0102443 0.00705515 -0.130885)
(0.0116939 0.00550144 -0.108844)
(0.0118345 0.00496226 -0.0918348)
(0.00678459 0.00374611 -0.0885633)
(-0.00352266 -0.00366581 -0.113396)
(-0.00468295 -0.0108874 -0.162281)
(0.00676567 -0.00232997 -0.190453)
(0.0192064 0.00996456 -0.174646)
(0.0188193 0.0149936 -0.13857)
(0.0148763 0.0123693 -0.110674)
(0.0082234 0.00486402 -0.117901)
(0.0175016 0.00583498 -0.146624)
(0.0145222 0.0208636 -0.12528)
(-0.0227621 0.0345598 -0.0827295)
(-0.0167594 0.0530714 -0.0479948)
(0.047716 0.0273718 0.016487)
(0.0648189 -0.0495871 0.0728806)
(0.0837482 -0.0632556 -0.257045)
(0.0198884 0.164773 -0.0835364)
(-0.0509171 0.0933361 0.414884)
(-0.040131 0.11675 0.262853)
(-0.00287863 0.105093 -0.000590152)
(-0.00772486 0.103817 -0.240007)
(-0.0638979 0.0874685 -0.233468)
(-0.0111598 0.0301098 -0.155538)
(0.0589632 -0.0355252 -0.155893)
(0.071162 -0.046249 -0.157563)
(0.0526982 -0.0212813 -0.1656)
(0.0220643 0.00559984 -0.168308)
(0.0129965 0.0132029 -0.163424)
(0.012076 0.00490231 -0.168016)
(0.0125949 -0.005634 -0.181332)
(0.00749171 -0.00572382 -0.199577)
(-0.00451081 0.00277207 -0.216047)
(-0.0180637 0.0133318 -0.225486)
(-0.0305864 0.0203455 -0.226823)
(-0.0387116 0.024081 -0.221366)
(-0.0438684 0.0241005 -0.212089)
(-0.0463768 0.0228649 -0.200327)
(-0.0480245 0.0208139 -0.186899)
(-0.0497634 0.01907 -0.173864)
(-0.0548596 0.0187287 -0.16422)
(-0.0629374 0.0207305 -0.159069)
(-0.0736188 0.024211 -0.157104)
(-0.0844611 0.0284435 -0.156639)
(-0.0918462 0.0296832 -0.151823)
(-0.096692 0.0269999 -0.156791)
(-0.120166 0.0323432 -0.161883)
(-0.159768 0.0226322 -0.15016)
(-0.181508 0.0214046 -0.156841)
(-0.208975 0.0240279 -0.159331)
(-0.237279 0.021113 -0.155502)
(-0.291122 0.0172223 -0.147359)
(-0.334204 0.0151915 -0.113196)
(-0.353101 0.00536169 -0.111398)
(-0.0913201 0.0359919 -0.0732258)
(-0.0854837 0.0192312 -0.0962707)
(-0.0798695 0.0139682 -0.0873777)
(-0.0615797 0.000837939 -0.0961917)
(-0.011254 -0.0386397 -0.0790171)
(0.00944661 -0.0281645 -0.0745078)
(0.141172 -0.130001 -0.0900565)
(-0.110893 0.0991961 -0.0304519)
(-0.0126873 0.0674739 -0.137797)
(0.00481438 0.0376732 -0.113202)
(0.00312343 0.00488928 -0.121962)
(-0.0138122 0.0687372 -0.123221)
(-0.050943 0.0594977 -0.0726893)
(-0.0588316 0.0479066 -0.0827315)
(0.0177646 0.0287392 -0.126791)
(0.0183239 0.011845 -0.115443)
(0.0089965 0.00520315 -0.094365)
(-0.0337638 0.0404338 -0.0624315)
(-0.0560114 0.0462728 -0.0088622)
(-0.0575552 0.0161905 -0.0315704)
(-0.0309978 0.0376368 -0.0288715)
(0.0430947 0.0235168 -0.0978473)
(0.0329961 0.00405789 -0.131681)
(0.0317406 -0.0114153 -0.133217)
(0.0315902 -0.0124622 -0.130449)
(0.0335312 -0.00761626 -0.146023)
(0.0421386 0.00391443 -0.139089)
(0.0421391 0.00806692 -0.133666)
(0.0386229 0.00641464 -0.124701)
(0.035532 0.00373819 -0.129422)
(0.0405106 0.00955287 -0.126707)
(0.0282749 0.0160917 -0.113199)
(0.0322636 0.00874012 -0.119083)
(0.0375301 0.00826478 -0.121156)
(0.0398801 0.00520986 -0.131744)
(0.0372431 0.00695363 -0.150668)
(0.0301809 0.00679695 -0.165844)
(0.0242651 0.00313874 -0.178828)
(0.0173973 -0.00243623 -0.18576)
(0.00914435 -0.00857295 -0.19009)
(-0.000486342 -0.0108726 -0.185833)
(-0.0100466 -0.0150696 -0.177652)
(-0.0197444 -0.0177105 -0.169479)
(-0.02924 -0.0192701 -0.158882)
(-0.0415388 -0.0242164 -0.154264)
(-0.048125 -0.0209325 -0.143749)
(-0.0527936 -0.016262 -0.127007)
(-0.0554238 -0.016515 -0.111741)
(-0.0575683 -0.0211539 -0.093759)
(-0.0577669 -0.0141556 -0.0837106)
(-0.0565481 -0.011858 -0.0758695)
(-0.0598211 -0.0123379 -0.0715106)
(-0.0560381 -0.0081553 -0.0683141)
(-0.0558781 -0.00895515 -0.0676726)
(-0.0608565 -0.0118548 -0.0720663)
(-0.0599058 -0.0133452 -0.0702951)
(-0.0617216 -0.0158339 -0.0699926)
(-0.0644267 -0.017262 -0.0715281)
(-0.0679084 -0.0203944 -0.0725936)
(-0.071174 -0.0215827 -0.0739205)
(-0.0740008 -0.024975 -0.0742512)
(-0.0771901 -0.0245201 -0.0748975)
(-0.0810723 -0.0274633 -0.0754053)
(-0.0845722 -0.026475 -0.0761014)
(-0.0881546 -0.0294002 -0.07603)
(-0.0919019 -0.0290916 -0.0761249)
(-0.0960534 -0.026178 -0.0767805)
(-0.102405 -0.0272529 -0.07586)
(-0.105489 -0.0242381 -0.0781779)
(-0.109208 -0.0236581 -0.076956)
(-0.113299 -0.0216493 -0.0776765)
(-0.121053 -0.0150538 -0.0783565)
(-0.127558 -0.0119127 -0.0754767)
(-0.12825 -0.00835753 -0.0777351)
(-0.133314 0.00501653 -0.0776402)
(-0.139712 0.0117212 -0.074381)
(-0.131337 0.0243392 -0.0734311)
(-0.128446 0.0414206 -0.0663475)
(-0.107857 0.0437107 -0.0584503)
(-0.0846559 0.0565273 -0.0519923)
(-0.0719566 0.0633274 -0.042985)
(-0.0501176 0.0485214 -0.0374669)
(-0.0330258 0.0267226 -0.0272741)
(-0.0265741 -0.0077003 -0.024351)
(-0.0339769 -0.0426952 -0.0462459)
(-0.0545266 -0.0591228 -0.102612)
(-0.0336292 -0.0611821 -0.0925236)
(-0.0461816 -0.0889716 -0.0293042)
(-0.0609886 -0.0981295 -0.0172932)
(-0.0811359 -0.115444 -0.0175114)
(-0.110009 -0.103504 -0.039242)
(-0.135721 -0.106044 -0.0592814)
(-0.14306 -0.103144 -0.0604791)
(-0.163123 -0.093464 -0.0678922)
(-0.180924 -0.0825263 -0.0721751)
(-0.220329 -0.0609435 -0.0722765)
(-0.231748 -0.0365631 -0.0941467)
(-0.241214 0.00778834 -0.0973269)
(-0.266861 0.0341062 -0.110277)
(-0.129851 0.0214042 -0.154589)
(-0.116379 0.00973947 -0.15744)
(-0.107098 0.00452482 -0.156075)
(-0.0980274 -0.00132151 -0.154084)
(-0.090991 -0.00667471 -0.15303)
(-0.0858676 -0.0141824 -0.152244)
(-0.082404 -0.0209265 -0.155166)
(-0.0788115 -0.0204872 -0.161668)
(-0.0732852 -0.0180589 -0.167875)
(-0.0664582 -0.0136034 -0.175775)
(-0.0577015 -0.011509 -0.185203)
(-0.0464929 0.000563348 -0.201921)
(-0.0343945 0.00694675 -0.206367)
(-0.0186368 0.0166107 -0.222979)
(-0.00490213 0.0182133 -0.215737)
(0.00964038 0.0239018 -0.225431)
(0.0197936 0.0328435 -0.206352)
(0.0260833 0.0593572 -0.217388)
(0.0349374 0.102893 -0.175232)
(0.0389032 0.100202 -0.134324)
(0.0580281 0.0963799 -0.105335)
(0.0405542 0.0935433 -0.0773434)
(0.0101653 0.089666 -0.0945266)
(0.0304454 0.161233 -0.0958321)
(0.00595425 0.268085 -0.0846686)
(0.0122574 0.115879 0.0439429)
(0.00942217 0.0197857 -0.185216)
(-0.0042909 0.0429682 -0.151809)
(0.0423379 0.0826382 -0.0586056)
(-0.0230242 0.0538191 -0.120343)
(-0.0117211 0.0562517 -0.180752)
(0.0629384 0.0351187 -0.113124)
(0.0142509 0.0105606 -0.121923)
(0.0541535 -0.05121 -0.053207)
(0.0521825 0.0141485 -0.128535)
(0.043459 0.0234893 -0.20141)
(0.0581533 -0.0278542 -0.160124)
(0.0553311 0.000214332 -0.0998392)
(0.0479351 -0.0103313 -0.131429)
(0.0266159 -0.00724444 -0.100691)
(0.0180152 -0.0143392 -0.105933)
(0.0160066 -0.00866019 -0.139444)
(0.042086 -0.00565328 -0.13958)
(0.0814887 0.0154584 -0.145309)
(-0.0129945 0.0154016 -0.0482866)
(0.0312435 -0.000874958 -0.04526)
(0.0160413 0.0098365 -0.0426144)
(0.0327028 0.0369272 -0.116737)
(0.0437186 -0.00600194 -0.148457)
(0.0244597 -0.0239139 -0.126177)
(0.0334941 -0.00625807 -0.112924)
(0.0475071 0.00201572 -0.119909)
(0.0535665 -0.00276245 -0.0524805)
(0.0293033 0.0117415 -0.0509677)
(0.0162129 0.0312821 -0.211969)
(0.0153296 0.00942492 -0.13077)
(0.0230419 0.0150314 -0.0953503)
(0.0388742 0.0186778 -0.132529)
(0.0389171 -0.0137563 -0.148524)
(0.0394301 -0.0178338 -0.127045)
(0.0419341 -0.0120162 -0.113559)
(0.0412677 0.0132486 -0.122594)
(0.02299 0.0322273 -0.0771569)
(-0.0178501 0.0536629 -0.0677014)
(-0.0565921 0.062896 -0.0487282)
(0.0245688 0.0355443 -0.104573)
(0.0313602 0.0197266 -0.149559)
(0.0425102 -0.00637111 -0.13045)
(0.0363372 -0.00454647 -0.120539)
(0.0413509 -0.000545715 -0.134263)
(0.0338304 0.00572087 -0.158117)
(0.0353122 0.0099435 -0.161154)
(0.0395961 0.00868595 -0.148688)
(0.0412266 0.00492631 -0.132052)
(0.0350204 0.00319113 -0.125102)
(0.0324187 0.0029481 -0.137014)
(0.0265454 0.0117963 -0.141141)
(0.027247 -0.0015981 -0.124823)
(0.0295638 -0.00498709 -0.126199)
(0.0303274 -0.00297568 -0.121312)
(0.0371797 -0.00196747 -0.135869)
(0.0316651 0.00197438 -0.149901)
(0.0261446 0.00346874 -0.167429)
(0.0180946 0.00115094 -0.182075)
(0.009023 -0.00286229 -0.189027)
(0.000339754 -0.00712662 -0.189128)
(-0.00766979 -0.0120064 -0.186174)
(-0.016799 -0.0139316 -0.178274)
(-0.025913 -0.0148168 -0.168482)
(-0.0326595 -0.0157187 -0.157285)
(-0.041105 -0.0200523 -0.151528)
(-0.043711 -0.0194964 -0.13986)
(-0.0490347 -0.0182516 -0.12651)
(-0.0508999 -0.0150906 -0.111183)
(-0.0580051 -0.0169903 -0.104178)
(-0.0579385 -0.0125729 -0.0952963)
(-0.0577427 -0.0072384 -0.0805961)
(-0.0614274 -0.00940208 -0.0800299)
(-0.0580545 -0.00731319 -0.0715373)
(-0.0551752 -0.00544059 -0.0626113)
(-0.0554366 -0.00581267 -0.0632675)
(-0.058026 -0.00396027 -0.0641831)
(-0.0627086 -0.00751898 -0.0711803)
(-0.0601243 -0.00890115 -0.0682421)
(-0.0647222 -0.0114036 -0.0692061)
(-0.0646687 -0.011461 -0.0674332)
(-0.0682129 -0.0121115 -0.0698591)
(-0.0704951 -0.0131554 -0.0691405)
(-0.075439 -0.0140385 -0.0717313)
(-0.0783394 -0.0162888 -0.070565)
(-0.0803649 -0.0150996 -0.0704196)
(-0.0840377 -0.0160201 -0.0687411)
(-0.0859878 -0.0144199 -0.0697285)
(-0.0891752 -0.0101481 -0.0705721)
(-0.0947095 -0.00996117 -0.0691809)
(-0.0962631 -0.00824001 -0.0709701)
(-0.0968343 -0.00340472 -0.0713902)
(-0.0995821 -0.00296019 -0.0682182)
(-0.100886 -0.000110653 -0.0690585)
(-0.0975277 0.00663151 -0.0661816)
(-0.100423 0.00866346 -0.0649786)
(-0.10037 0.012687 -0.0651949)
(-0.0975776 0.0183288 -0.0645252)
(-0.0898651 0.0141828 -0.0631988)
(-0.082732 0.0145753 -0.06134)
(-0.080875 0.0136698 -0.0571166)
(-0.0735166 0.00613226 -0.0580464)
(-0.0694152 -0.00762497 -0.0537392)
(-0.0732847 -0.0127689 -0.0559384)
(-0.0730455 -0.0213918 -0.0559422)
(-0.0814833 -0.0303795 -0.0543794)
(-0.0845517 -0.0307476 -0.0594252)
(-0.09432 -0.0367473 -0.0616763)
(-0.104776 -0.0364781 -0.0668704)
(-0.116124 -0.0449377 -0.0620594)
(-0.126385 -0.0488359 -0.0669667)
(-0.130313 -0.0351389 -0.0748272)
(-0.161051 -0.0342719 -0.0710106)
(-0.159118 -0.0285317 -0.0818631)
(-0.182853 -0.0185785 -0.0752276)
(-0.178318 -0.0137093 -0.0862183)
(-0.193598 0.0064901 -0.0789996)
(-0.187785 0.00699087 -0.0893406)
(-0.185901 0.0341608 -0.0895888)
(-0.205447 0.0502185 -0.100463)
(-0.198844 0.0579115 -0.107356)
(-0.194907 0.0831004 -0.11034)
(0.112242 -0.181517 0.154982)
(0.0809158 0.0244602 -0.0428638)
(-0.146578 0.0568087 -0.104561)
(0.0255015 0.106166 -0.109608)
(-0.0028952 0.0262969 -0.047595)
(-0.0204638 0.0292077 -0.107007)
(-0.0356998 0.0390447 -0.0567132)
(0.00416393 0.0207286 -0.0819581)
(0.0268094 -0.0177732 -0.0944322)
(-0.043677 0.0456769 -0.0466663)
(-0.0300308 0.03273 -0.060467)
(0.0809689 -0.000705616 -0.116148)
(0.0244956 0.0178435 -0.117383)
(0.0237422 0.080064 -0.0998168)
(-0.0297414 0.0811594 -0.0731986)
(-0.0272263 0.0370765 -0.107684)
(-0.0254923 0.0219606 -0.102263)
(0.0303764 0.0453989 -0.133253)
(-0.028866 0.0369735 -0.0702997)
(-0.022646 0.0730954 -0.0816595)
(0.00561806 0.114452 -0.0971569)
(0.000628374 0.0517873 -0.0562626)
(0.00909674 0.0320254 -0.00976661)
(-0.0242189 0.0503393 -0.019581)
(0.0186831 0.0647632 -0.0608544)
(0.111389 0.0597836 -0.147597)
(-0.00850086 0.121136 -0.175565)
(0.0282403 0.0517562 -0.189285)
(-0.0496472 -0.00194356 -0.177633)
(-0.0385961 0.0195617 -0.119613)
(-0.0155605 0.0486281 -0.0964281)
(-0.0381987 0.04718 -0.11613)
(0.0216402 0.0508928 -0.122888)
(0.00524657 0.0437595 -0.108142)
(-0.00545268 0.0407842 -0.126082)
(0.0325693 0.00661262 -0.0941101)
(0.0684818 0.0165832 -0.105831)
(0.0732101 0.0187011 -0.0751641)
(0.0056373 0.0488709 -0.0830558)
(0.221011 0.102209 -0.124896)
(-0.0405466 -0.0596391 -0.075676)
(0.0336662 0.0418131 -0.05934)
(0.0216934 0.00408312 -0.0889065)
(0.0521271 0.0907701 -0.0381399)
(0.00625555 0.0750115 -0.193006)
(-0.0107009 0.0697645 -0.147853)
(0.0405496 -0.00887683 -0.201082)
(0.0298541 -0.0586937 0.0467554)
(0.0935244 -0.0213825 -0.050074)
(0.0815614 -0.0495277 -0.15056)
(0.0157713 -0.0492798 -0.0818414)
(0.0503143 -0.0505962 -0.0683958)
(0.0970662 -0.0538262 -0.122852)
(0.0515503 0.0178023 -0.10983)
(0.0443575 -0.00937063 -0.133869)
(0.0524787 -0.0301789 -0.0878222)
(0.0472155 -0.0232039 -0.0934975)
(0.0774517 -0.0338131 -0.0388248)
(0.0237912 -0.0350088 -0.0505344)