/*--------------------------------*- C++ -*----------------------------------*\
  =========                 |
  \\      /  F ield         | OpenFOAM: The Open Source CFD Toolbox
   \\    /   O peration     | Website:  https://openfoam.org
    \\  /    A nd           | Version:  7
     \\/     M anipulation  |
\*---------------------------------------------------------------------------*/
FoamFile
{
    version     2.0;
    format      ascii;
    class       volScalarField;
    location    "18.8";
    object      alpha.water;
}
// * * * * * * * * * * * * * * * * * * * * * * * * * * * * * * * * * * * * * //

dimensions      [0 0 0 0 0 0 0];

internalField   nonuniform List<scalar> 
15010
(
1.00183
1.00178
1.00177
1.00171
1.00165
1.0016
1.00163
1.00162
1.00151
1.00163
1.00172
1.00174
1.0017
1.00174
1.00179
1.00183
1.00187
1.00193
1.00191
1.00182
1.00179
1.00178
1.00174
1.00169
1.00163
1.00158
1.00162
1.00162
1.00152
1.00164
1.00173
1.00174
1.00169
1.00172
1.00177
1.00182
1.00187
1.0019
1.00186
1.00181
1.00177
1.00173
1.00167
1.00162
1.00158
1.00163
1.00164
1.00154
1.00166
1.00175
1.00174
1.00168
1.00172
1.00176
1.00182
1.00186
1.00183
1.00188
1.00178
1.00176
1.00172
1.00166
1.00161
1.00157
1.00163
1.00166
1.00157
1.00168
1.00176
1.00174
1.00168
1.00171
1.00176
1.00182
1.00178
1.00185
1.00185
1.00177
1.00175
1.00171
1.00165
1.00159
1.00156
1.00162
1.00167
1.0016
1.00171
1.00178
1.00174
1.00167
1.00171
1.00175
1.00171
1.00179
1.00182
1.00183
1.00175
1.00173
1.00169
1.00163
1.00157
1.00154
1.00161
1.00168
1.00163
1.00174
1.00178
1.00174
1.00166
1.00169
1.00165
1.00172
1.00176
1.0018
1.00181
1.00173
1.00171
1.00167
1.0016
1.00155
1.00151
1.00159
1.00167
1.00166
1.00177
1.00179
1.00172
1.00165
1.00159
1.00164
1.00167
1.00174
1.00178
1.00179
1.00171
1.00169
1.00164
1.00157
1.00152
1.00148
1.00156
1.00165
1.00169
1.0018
1.00178
1.0017
1.00163
1.00158
1.0016
1.00164
1.00171
1.00175
1.00176
1.00169
1.00167
1.00161
1.00154
1.00148
1.00145
1.00152
1.00161
1.00171
1.00183
1.00177
1.00168
1.00162
1.00153
1.00155
1.0016
1.00167
1.00173
1.00174
1.00167
1.00164
1.00157
1.0015
1.00144
1.00141
1.00147
1.00156
1.00171
1.00187
1.0018
1.00164
1.00154
1.00148
1.00151
1.00156
1.00163
1.0017
1.00172
1.00165
1.0016
1.00153
1.00146
1.00139
1.00136
1.00141
1.0015
1.00172
1.0016
1.00177
1.00154
1.00147
1.00142
1.00145
1.00151
1.00158
1.00166
1.00169
1.00163
1.00157
1.00148
1.00141
1.00134
1.00131
1.00135
1.00142
1.00131
1.00149
1.00163
1.00146
1.00141
1.00136
1.0014
1.00146
1.00153
1.00162
1.00167
1.0016
1.00153
1.00144
1.00136
1.00129
1.00125
1.0013
1.00121
1.00128
1.00132
1.00145
1.00138
1.00134
1.00129
1.00134
1.00141
1.00148
1.00158
1.00162
1.00156
1.0015
1.00139
1.00132
1.00124
1.00119
1.00112
1.00107
1.00105
1.00116
1.00119
1.00113
1.00102
1.00099
1.00105
1.00119
1.0013
1.00117
1.00127
1.00117
1.00122
1.00128
1.00137
1.00144
1.00152
1.00147
1.00136
1.00128
1.00119
1.00113
1.00107
1.001
1.00095
1.00088
1.00097
1.00108
1.00119
1.00109
1.00111
1.00116
1.00122
1.00133
1.00139
1.00149
1.00143
1.00131
1.00124
1.00119
1.00108
1.00103
1.00095
1.00088
1.00082
1.0008
1.00074
1.0009
1.00101
1.00091
1.00093
1.00101
1.00105
1.0011
1.00117
1.00129
1.00134
1.00145
1.00138
1.00127
1.0012
1.00112
1.00108
1.00099
1.0009
1.00083
1.00077
1.00076
1.00071
1.00082
1.00085
1.00109
1.00107
1.00086
1.00087
1.00092
1.00098
1.00105
1.00112
1.00121
1.00131
1.00128
1.00134
1.00129
1.00123
1.00117
1.00107
1.00117
1.00129
1.00136
1.00131
1.00122
1.00128
1.00125
1.00106
1.00096
1.00086
1.00078
1.0007
1.00061
1.0007
1.00081
1.00084
1.00067
1.0006
1.00052
1.00045
1.00039
1.00035
1.00031
1.00027
1.00025
1.00022
1.00019
1.00015
1.0002
1.00015
1.0001
1.00003
1.00015
1.00015
1.00013
1.00009
1.00011
1.00012
1.00012
1.00012
1.00012
1.00012
1.00012
1.00012
1.00012
1.00012
1.00012
1.00011
1.0001
1.0001
1.00009
1.00008
1.00008
1.00008
1.00009
1.00009
1.00009
1.00009
1.00008
1.00007
1.00006
1.0001
0.999909
0.999882
0.999846
0.999956
0.999917
0.999932
0.999931
0.999999
1
1.00003
1.00001
1.00004
1.00002
1.00001
1.00001
1.00009
1
1.00009
0.999991
1.00001
1.00002
1.00001
1.00007
1.00006
1.00005
1.00005
1.0001
1.00012
1.00004
1.0001
1.00008
0.999847
0.999969
0.999995
0.999978
1.00001
1.00001
0.999957
0.999951
0.999914
0.999944
0.999991
1.00003
1.00006
1.00009
1.0001
1.0001
1.0001
1.0001
1.00009
1.00008
1.00008
1.00008
1.00008
1.00008
1.00008
1.00008
1.00008
1.00008
1.00008
1.00007
1.00007
1.00007
1.00006
1.00006
1.00007
1.00007
1.00008
1.00009
1.00005
1.00016
1.00015
1.00015
1.00013
1.0002
1.00022
1.00023
1.00026
1.0003
1.00034
1.00037
1.00038
1.00046
1.00056
1.0006
1.00058
1.00066
1.00078
1.00071
1.0007
1.0008
1.00078
1.00086
1.00094
1.00099
1.00111
1.00107
1.00103
1.00091
1.00101
1.00114
1.00107
1.00104
1.00113
1.0013
1.00124
1.00119
1.00109
1.00095
1.00083
1.00075
1.00075
1.00066
1.00057
1.00048
1.00042
1.00038
1.00034
1.00031
1.00028
1.00025
1.00025
1.00015
1.00026
1.00038
1.0003
1.00035
1.00029
1.00022
1.0003
1.00028
1.00022
1.00019
1.00013
1.00003
1.00021
1.00023
1.00023
1.00022
1.00021
1.0002
1.00019
1.00019
1.00019
1.00019
1.00019
1.00019
1.00019
1.00019
1.00018
1.00016
1.00015
1.00013
1.00011
1.0001
1.00009
1.00009
1.0001
1.0001
1.00013
1.00004
0.999664
0.998935
0.999864
0.99987
0.999933
0.999953
0.999959
0.999959
0.999955
0.999949
0.99994
0.999934
0.999938
0.999948
0.999956
0.999963
0.999969
0.999972
0.99997
0.999964
0.999957
0.999948
0.99994
0.999931
0.999917
0.999902
0.999895
0.999887
0.999897
0.999964
1.00007
1
0.999953
1.00006
1.00006
1.00006
1.00007
1.00007
1.00008
1.00009
1.00009
1.0001
1.0001
1.0001
1.0001
1.00009
1.00008
1.00006
1.00004
1.00002
1.00001
1.00001
1
1
1
0.999996
0.999967
0.999829
0.997941
0.998953
0.998488
0.999973
0.99983
0.999934
0.999997
1.00001
1.00002
1.00004
1
0.999918
0.999879
0.999814
0.999948
0.999972
0.999995
0.999967
0.999948
1
1.00001
1.00004
1.00003
0.999991
0.999988
0.999979
1.00004
1
1.00004
0.999989
1.00003
0.999997
0.999815
0.999994
0.99998
1
0.999964
0.999941
0.999978
1
0.99997
0.999985
1.00001
1.00001
0.999991
0.999998
0.999965
0.999906
0.999968
0.999971
0.999997
1.00002
1.00003
1.00005
1.00004
1.00004
0.999883
0.99989
0.999935
0.999959
0.999973
1.00003
1.00004
1.00013
1.00011
1.00004
1.00006
1.00007
1.00009
1.00018
1.00013
0.999992
1.00002
0.999989
0.999933
0.999999
0.999992
1.00006
1.00003
1.0002
1.00013
1.00002
0.999958
0.999951
1.00001
1.00006
1.0001
1.00009
1.00008
1.00007
1.00008
1.00009
1.0001
1.00012
1.00013
1.00014
1.00015
1.00015
1.00014
1.00013
1.00012
1.00011
1.0001
1.00009
1.00009
1.00008
1.00009
1.0001
1.00011
1.00011
1.00014
1.00017
1.00017
1.00022
1
1.00003
1.00019
1.00025
1.00016
1.00014
1.00023
1.00021
1.00017
1.0001
1.00025
1.00019
1.00023
1.00023
1.00022
1.00021
1.00021
1.00021
1.0002
1.0002
1.00019
1.00019
1.00018
1.00017
1.00016
1.00015
1.00015
1.00014
1.00014
1.00014
1.00014
1.00015
1.00014
1.00014
1.00012
1.0001
1.00009
1.00011
0.999919
0.999947
0.999974
1.00002
1.00001
1.00001
1.00006
1.00001
0.999935
1.00001
0.999899
0.999943
0.999869
0.999974
0.99997
1.00001
0.999962
0.999949
1.00001
0.999989
0.999964
0.999934
0.999902
0.999854
0.999952
0.999999
1
1.00003
1.00004
1.00003
1.00002
0.999994
0.999977
0.999999
1.00002
1.00006
1.00003
1
0.999941
1
1
0.999989
1
0.999985
0.999972
0.999979
1
1.00005
1.00009
1.00012
1.00014
1.00015
1.00016
1.00016
1.00016
1.00016
1.00015
1.00015
1.00014
1.00014
1.00014
1.00014
1.00014
1.00014
1.00014
1.00013
1.00013
1.00013
1.00012
1.00012
1.00012
1.00013
1.00013
1.00014
1.00012
1.00018
1.00017
1.00018
1.00018
1.0002
1.00024
1.00022
1.00024
1.00032
1.00033
1.0003
1.00041
1.00045
1.00048
1.00052
1.00055
1.00066
1.00064
1.00093
1.00103
1.00106
1.00103
1.00095
1.00089
1.00082
1.00081
1.00076
1.0007
1.00063
1.00059
1.00063
1.0006
1.0005
1.00049
1.00043
1.00041
1.00033
1.0004
1.00033
1.00028
1.00028
1.00025
1.00028
1.00023
1.00019
1.00011
1.00018
1.0002
1.00026
1.00021
1.0002
1.00019
1.00018
1.00018
1.00018
1.00017
1.00017
1.00017
1.00017
1.00017
1.00016
1.00016
1.00016
1.00016
1.00016
1.00016
1.00017
1.00017
1.00018
1.00018
1.00017
1.00017
1.00015
1.00012
1.00009
1.00004
0.999995
0.999968
0.99998
0.999977
1.00003
1.00006
1.00008
1.0001
1.00011
1.00012
1.00011
1.00012
1.00011
1.00007
1.00005
0.999997
0.999966
0.999915
0.999909
0.999868
0.999806
0.999956
1.00003
1.00004
0.999943
0.999991
0.99999
0.999976
0.99991
0.999807
0.999648
0.999579
0.999833
0.999947
0.999981
1.00001
1.00003
1.00003
1.00002
1.00001
1.00001
1.00003
1.00001
1.00007
1.00035
1.00054
1.00058
1.00057
1.00059
1.00022
1.00023
1.0002
1.00008
1.00038
1.00043
1.00052
1.0006
1.00036
1.0001
1.00003
1.00002
0.999999
0.999993
0.999979
0.999979
1
1.00005
1.00009
1.00012
1.00015
1.00016
1.00017
1.00018
1.00018
1.00018
1.00017
1.00017
1.00017
1.00016
1.00016
1.00016
1.00015
1.00015
1.00015
1.00014
1.00014
1.00013
1.00013
1.00012
1.00012
1.00012
1.00013
1.00013
1.00013
1.00017
1.00013
1.00011
1.00015
1.00016
1.00019
1.00021
1.00023
1.00032
1.00038
1.00038
1.00047
1.00052
1.00056
1.00059
1.00049
1.00055
1.00065
1.00067
1.00074
1.00083
1.00083
1.00089
1.00099
1.00119
1.00116
1.00093
1.00082
1.00093
1.00088
1.00078
1.0007
1.00061
1.00053
1.00046
1.00041
1.00036
1.00033
1.0003
1.00031
1.00023
1.00028
1.0005
1.00055
1.00043
1.00035
1.00038
1.00036
1.00032
1.00029
1.00026
1.00023
1.00029
1.00028
1.00029
1.00028
1.00026
1.00027
1.00025
1.00025
1.00024
1.00023
1.00023
1.00023
1.00023
1.00023
1.00023
1.00024
1.00024
1.00024
1.00024
1.00024
1.00024
1.00025
1.00025
1.00025
1.00026
1.00026
1.00025
1.00024
1.00022
1.0002
1.00016
1.00012
1.00007
1.00004
1.00003
1.00005
1.00008
1.00008
1.00009
1.00011
1.00013
1.0001
1.00011
1.00011
1.00017
1.00011
1.00014
1.00013
1.00012
1.0001
1.00005
1.00002
0.999966
0.99987
0.999863
0.999849
0.99987
0.999634
0.999911
0.999847
1.00003
0.999918
0.999954
0.999964
0.999967
0.999901
0.999753
0.999432
0.999124
0.99942
0.999743
0.999901
0.999974
1
1.00002
1.00003
1.00002
1.00001
0.999997
1
1.00003
1.00004
1.0001
1.00033
1.0004
1.00059
1.00075
1.00067
1.00069
1.00015
1.00013
1.00021
1.00017
1.00014
1.00012
1.00016
1.00019
1.00019
1.00015
1.00011
1.00005
1.00002
0.999996
0.999978
0.999974
0.999973
0.999972
0.999954
0.999955
0.999947
0.999945
0.999905
0.99986
0.999712
0.999404
0.998945
0.998895
0.649677
0.768133
0.851817
0.910662
0.936142
0.955937
0.975165
0.986581
0.992878
0.995213
0.997295
0.998657
0.999334
0.999679
0.99977
0.999797
0.99967
0.999852
0.999925
0.999946
0.999975
0.999959
0.99987
0.999846
0.999874
0.999946
1
1.00003
1.00008
1.00003
1.00005
1.00004
1.00005
1.00008
1.00008
1.00007
1.00006
1.00006
0.999998
1
1.00003
1.00003
0.999995
0.999973
0.999888
0.999979
1.00003
0.999986
0.999923
0.999876
0.99971
0.999943
0.999923
0.999903
0.999692
0.999819
0.999682
0.999913
0.999867
0.999662
0.999578
0.999013
0.997912
0.995806
0.991805
0.984588
0.971757
0.949781
0.911837
0.910411
0.849539
0.765621
0.65697
0.645121
0.760785
0.849624
0.846427
0.884246
0.914103
0.949829
0.972167
0.984971
0.992055
0.99581
0.997217
0.998471
0.999308
0.9997
0.999702
0.999532
0.999174
0.999147
0.999639
0.999849
0.999845
0.999495
0.999494
0.999801
0.999938
0.99974
0.999693
0.999637
0.999808
0.999971
0.999955
0.999837
0.999788
0.999861
0.99946
0.999579
0.999862
0.999933
0.999623
0.999417
0.999418
0.999504
0.999886
0.999907
0.999633
0.999613
0.999878
0.999717
0.999686
0.998952
0.999058
0.999603
0.999515
0.998898
0.99776
0.995536
0.991374
0.984137
0.971497
0.950258
0.912647
0.849576
0.846171
0.759587
0.759893
0.64798
0.421404
0.511375
0.637185
0.758149
0.76
0.847235
0.908368
0.934571
0.953493
0.973458
0.98543
0.992111
0.994729
0.996874
0.998358
0.999109
0.999307
0.999634
0.999837
0.999885
0.999961
0.999978
0.999978
0.999995
0.999992
0.999995
0.999935
0.99997
1.00001
0.999986
0.999941
0.999869
0.999983
1
1.00002
0.999991
0.999986
1
0.999997
0.999962
0.999961
0.999939
0.999825
0.999747
0.999422
0.998757
0.998766
0.997587
0.995375
0.991025
0.983225
0.969579
0.946571
0.907655
0.908536
0.846879
0.765215
0.707421
0.774798
0.851827
0.851817
0.914481
0.95128
0.972596
0.984167
0.991263
0.99525
0.99753
0.998332
0.999162
0.999605
0.999705
0.999885
0.999896
0.999713
0.999312
0.999614
0.999691
0.999554
0.999788
0.999881
0.999879
0.999785
0.999695
0.999689
0.999372
0.999112
0.999305
0.998713
0.998621
0.999124
0.999335
0.998604
0.998171
0.996633
0.996804
0.994254
0.990793
0.994
0.991168
0.995162
0.997386
0.997425
0.995197
0.99116
0.984136
0.983714
0.98618
0.986685
0.976888
0.965904
0.976204
0.970864
0.948447
0.951195
0.95072
0.913784
0.851794
0.757678
0.756551
0.631372
0.645974
0.637247
0.641281
0.635148
0.634768
0.758781
0.81691
0.864892
0.914161
0.914376
0.859046
0.85518
0.858756
0.758462
0.645336
0.868753
0.922138
0.953249
0.97242
0.974609
0.985271
0.991668
0.995417
0.997547
0.996767
0.998289
0.998763
0.997622
0.995571
0.994089
0.989595
0.982415
0.971397
0.954159
0.956452
0.92383
0.863508
0.866436
0.924287
0.918679
0.954649
0.97473
0.985753
0.991982
0.992062
0.995628
0.997659
0.998788
0.999389
0.999094
0.999538
0.999671
0.999594
0.99928
0.998688
0.998263
0.996732
0.994036
0.98952
0.982323
0.985825
0.974778
0.954681
0.918743
0.858108
0.857855
0.866875
0.924578
0.95418
0.971308
0.974656
0.985268
0.99163
0.995371
0.997508
0.997382
0.998583
0.999288
0.999097
0.998569
0.998127
0.997325
0.99509
0.995142
0.991099
0.984073
0.972402
0.953307
0.956476
0.923685
0.863257
0.70516
0.783585
0.868941
0.922248
0.914509
0.948526
0.970814
0.983617
0.991079
0.993946
0.990735
0.98658
0.98616
0.97623
0.965931
0.951366
0.914601
0.859273
0.865568
0.817367
0.767252
0.759017
0.758047
0.852064
0.913917
0.950746
0.951308
0.972534
0.984076
0.991179
0.995171
0.997453
0.998686
0.999359
0.999694
0.999871
0.999821
0.999624
0.999288
0.99908
0.998691
0.997497
0.995266
0.990904
0.983121
0.969524
0.946577
0.907782
0.914622
0.85205
0.756913
0.637459
0.707669
0.775291
0.852015
0.847119
0.765088
0.760282
0.847574
0.908576
0.934704
0.953564
0.973398
0.98532
0.991995
0.994592
0.991832
0.985482
0.97418
0.955508
0.950257
0.97138
0.983962
0.991184
0.995365
0.997622
0.998788
0.999404
0.999725
0.999607
0.999204
0.998374
0.997131
0.995555
0.995706
0.991942
0.984863
0.972111
0.949876
0.914332
0.912707
0.849702
0.758378
0.637706
0.641368
0.485506
0.65143
0.714825
0.776167
0.855526
0.911914
0.949878
0.971625
0.984538
0.991849
0.995827
0.997852
0.998924
0.999372
0.999742
0.999866
0.999663
0.998844
0.999232
0.999565
0.999825
0.999917
0.99998
0.999977
0.999959
0.999743
0.999871
0.999959
1.00001
1.00005
1.00007
1.00006
1.00007
1.00013
1.00013
1.00014
1.00013
1.00014
1.00015
1.00016
1.00014
1.00014
1.00012
1.0001
1.00012
1.00012
1.00012
1.00011
1.00011
1.00011
1.00011
1.00013
1.00008
1.00009
1.00007
1.00003
0.999995
0.999885
0.999748
0.99973
0.999828
0.999972
0.999979
0.999929
0.999858
0.999423
0.999504
0.999698
0.999607
0.999699
0.999351
0.998665
0.997309
0.995969
0.991966
0.984672
0.971901
0.949903
0.913471
0.855695
0.770843
0.649712
0.64458
0.500278
0.576469
0.665142
0.780689
0.859267
0.914209
0.950247
0.972267
0.985025
0.99216
0.996022
0.998045
0.999074
0.999628
0.999554
0.999445
0.999554
0.999855
0.999939
0.999975
0.999956
1
0.999988
1.00002
1.00001
1
0.999986
0.999968
0.999987
1
1.00002
1.00004
1.00003
1.00003
1.00004
1.00011
1.00015
1.00018
1.0002
1.00021
1.00021
1.00022
1.00021
1.0002
1.00019
1.00019
1.00018
1.00017
1.00015
1.00013
1.00007
1.00006
1.00007
1.00005
1.00001
0.999967
0.999862
0.999698
0.999647
0.999354
0.999232
0.998753
0.999305
0.998317
0.996488
0.992723
0.986644
0.973865
0.955734
0.916267
0.865499
0.760342
0.658326
0.34345
0.409841
0.507906
0.664186
0.779384
0.860047
0.914948
0.950459
0.972444
0.985205
0.992315
0.996113
0.998075
0.99905
0.999524
0.999775
0.999891
0.999897
0.999673
0.999629
0.999656
0.999896
0.999978
1.00001
1.00004
1.00003
0.999984
0.999668
0.999652
0.999686
0.999905
0.999991
0.999997
0.999989
1
1
1.00001
1.00006
1.00012
1.00017
1.00023
1.00024
1.00025
1.00025
1.00026
1.00025
1.00025
1.00023
1.00024
1.00024
1.00019
1.00013
1.00006
1
0.999882
0.999621
0.999099
0.997999
0.995372
0.987181
0.987628
0.963497
0.895376
0.723144
0.093805
0.147993
0.210711
0.322051
0.490411
0.580284
0.683742
0.783828
0.859741
0.913535
0.949623
0.972024
0.98507
0.992303
0.996154
0.998134
0.999119
0.999588
0.999771
0.999898
0.999902
0.999831
0.999275
0.999521
0.99971
0.999871
0.999907
0.999968
1
1.00005
1.00007
1.00013
1.00014
1.00017
1.00014
1.0001
1.0001
1.00011
1.00013
1.00015
1.00018
1.00021
1.00022
1.00021
1.00024
1.00024
1.00024
1.00024
1.00026
1.00028
1.00031
1.0003
1.0003
1.00028
1.00027
1.00027
1.00025
1.00024
1.00024
1.00026
1.00027
1.00028
1.00029
1.00032
1.00032
1.00031
1.00032
1.00029
1.00027
1.00026
1.00022
1.00021
1.00022
1.00017
1.00018
1.0002
1.00024
1.00024
1.00018
1.00016
1.00014
1.00016
1.00018
1.0002
1.00015
1.00014
1.00008
1.0001
1.00016
1.00017
1.00016
1.00012
1.00013
1.0001
1.00009
1.00009
1.0001
1.00004
1.00002
1.00005
1.0001
1.00006
1.00001
0.999888
1.00001
1.00008
1.00011
1.00003
0.99999
1.00003
0.999959
0.999815
0.999938
1.00002
1.00003
1.00001
1.00003
1.00002
0.999818
0.999776
0.999889
0.999981
1.00003
1.00006
1.00009
1.00007
1.00005
1.00008
1.0001
1.00012
1.00016
1.00021
1.00027
1.00027
1.00029
1.00029
1.0003
1.00028
1.00029
1.00029
1.00029
1.00028
1.00022
1.00016
1.0001
1.00002
0.999969
0.999988
0.999932
0.999732
0.999294
0.998319
0.995866
0.998414
0.995704
0.987244
0.961116
0.893405
0.721059
0.267516
0.356916
0.513256
0.660494
0.775839
0.858211
0.914368
0.950702
0.972893
0.985638
0.992617
0.996296
0.998185
0.999135
0.999606
0.999851
0.999859
0.999857
0.999817
0.999915
0.99992
0.999881
0.999944
0.999989
1.00003
1.00007
1.00006
1.00003
1.00002
0.999982
0.999921
0.9998
0.999548
0.999093
0.998248
0.996736
0.993713
0.99527
0.990612
0.983759
0.969339
0.951245
0.911111
0.864293
0.769041
0.658978
0.503324
0.333644
0.408565
0.520718
0.670926
0.783567
0.861117
0.914715
0.950025
0.972064
0.984955
0.992194
0.996094
0.998128
0.999153
0.999649
0.999812
0.999797
0.99921
0.999052
0.999273
0.999731
0.999907
0.999862
0.999815
0.999919
0.99996
0.999889
0.999752
0.99959
0.999438
0.999222
0.99832
0.998859
0.997531
0.995198
0.990405
0.983509
0.969085
0.950993
0.911033
0.864723
0.769939
0.661712
0.508302
0.342857
0.320635
0.501619
0.514892
0.675622
0.785039
0.861716
0.915361
0.95073
0.972625
0.985341
0.992435
0.996231
0.998194
0.999172
0.999645
0.999741
0.999302
0.998389
0.996478
0.992828
0.985856
0.973644
0.952465
0.918361
0.862746
0.781711
0.668378
0.516612
0.509676
0.337854
0.155726
0.239405
0.34494
0.495337
0.656044
0.72634
0.792999
0.861537
0.914313
0.950292
0.972462
0.985309
0.992432
0.9962
0.998107
0.999043
0.999335
0.99966
0.999724
0.99982
0.99994
0.99998
0.999979
0.999947
0.999592
0.999459
0.999459
0.999755
0.999935
1.00001
1.00007
1.00012
1.00015
1.00016
1.00017
1.00013
1.0001
1.0001
1.00011
1.00014
1.00017
1.0002
1.00024
1.00025
1.00027
1.00026
1.00029
1.00028
1.00028
1.00028
1.00029
1.00032
1.00032
1.00031
1.0003
1.0003
1.00029
1.00028
1.00029
1.0003
1.00031
1.00033
1.00033
1.00033
1.0003
1.00028
1.00027
1.00028
1.00024
1.00019
1.00011
1.00004
1.00003
1
0.999972
0.999898
0.999756
0.999445
0.998651
0.996357
0.988785
0.964902
0.891894
0.722245
0.40426
0.521692
0.672195
0.78083
0.85773
0.913597
0.938682
0.958831
0.976563
0.987369
0.993365
0.995363
0.99748
0.998776
0.999351
0.999365
0.999292
0.999291
0.9996
0.999782
0.999815
0.999932
0.999971
0.999974
0.999836
0.999905
0.999924
0.999998
1.00002
1.00006
1.00008
1.00012
1.00013
1.00015
1.00014
1.00015
1.00015
1.00018
1.00019
1.0002
1.00023
1.00025
1.00026
1.00029
1.0003
1.0003
1.0003
1.00031
1.00031
1.0003
1.00031
1.00033
1.00033
1.00033
1.00032
1.00031
1.00031
1.00031
1.00032
1.00033
1.00034
1.00033
1.00031
1.0003
1.0003
1.00026
1.0002
1.00013
1.00006
1.00002
0.999991
0.999959
0.9999
0.999782
0.999585
0.999416
0.999631
0.999828
0.999837
0.99966
0.999503
0.999085
0.998576
0.997333
0.995628
0.991687
0.986087
0.973551
0.955321
0.916584
0.864041
0.765111
0.660082
0.667392
0.775946
0.856484
0.892063
0.921236
0.953296
0.973915
0.985966
0.992669
0.996174
0.997373
0.998637
0.99936
0.999712
0.999884
0.999961
0.999967
0.99991
0.999547
0.998965
0.999194
0.99966
0.9999
0.999992
1.00003
1.00008
1.00013
1.00013
1.00016
1.00015
1.00017
1.00017
1.00019
1.0002
1.00023
1.00025
1.00024
1.00027
1.00027
1.00031
1.00031
1.00032
1.00036
1.00036
1.00035
1.00033
1.00036
1.00035
1.00035
1.00035
1.00037
1.00039
1.0004
1.00038
1.00035
1.00034
1.00033
1.00032
1.00032
1.00032
1.00032
1.00034
1.00032
1.00035
1.00035
1.00034
1.00033
1.00032
1.00032
1.00033
1.00034
1.00032
1.0003
1.00022
1.00016
1.00008
1.00004
1.00001
1
0.999997
0.999978
0.999957
0.999906
0.999839
0.9997
0.999532
0.999224
0.999269
0.999482
0.99963
0.999397
0.999021
0.997981
0.996351
0.992567
0.98671
0.973903
0.954074
0.913454
0.858742
0.759528
0.662305
0.140415
0.227677
0.332157
0.48774
0.662474
0.675148
0.787446
0.86206
0.915341
0.950974
0.972869
0.985523
0.992541
0.996274
0.998194
0.999145
0.999612
0.999655
0.999219
0.998295
0.996446
0.992727
0.986036
0.973375
0.952933
0.91693
0.865436
0.786616
0.677586
0.660317
0.50188
0.341409
0.219581
0.132673
0.662747
0.726554
0.786823
0.858315
0.912602
0.93692
0.958213
0.976086
0.987213
0.993359
0.995315
0.997558
0.998855
0.999477
0.999781
0.999887
0.999828
0.999855
0.999817
0.999867
0.999926
0.999887
0.999769
0.999879
0.999948
0.999994
1.00003
1.00008
1.0001
1.00014
1.00015
1.00018
1.00017
1.0002
1.0002
1.00022
1.00022
1.00025
1.00026
1.00026
1.00029
1.00028
1.00032
1.00033
1.00033
1.00036
1.00036
1.00035
1.00037
1.00038
1.0004
1.00043
1.00045
1.00047
1.00051
1.00054
1.00048
1.00042
1.00037
1.00033
1.00038
1.00043
1.00047
1.00048
1.00047
1.00046
1.00043
1.00044
1.00044
1.00044
1.00042
1.00039
1.00036
1.00033
1.00034
1.00037
1.0004
1.00041
1.0004
1.00039
1.00038
1.00038
1.0004
1.00038
1.00038
1.00036
1.00036
1.00035
1.00024
1.00016
1.00009
1.00006
1.00003
1.00001
1
0.999984
0.999956
0.999892
0.999749
0.999435
0.999224
0.999224
0.999527
0.999762
0.999772
0.999479
0.998912
0.997773
0.995745
0.99199
0.985495
0.973465
0.95291
0.915733
0.858558
0.768121
0.654619
0.833564
0.868915
0.917804
0.952219
0.966863
0.979051
0.988689
0.992028
0.995699
0.997933
0.999054
0.999595
0.999773
0.999786
0.999663
0.999451
0.999698
0.999838
0.999861
0.999933
0.999981
1
1.00002
1.00004
1.00006
1.00011
1.00012
1.00015
1.00015
1.00016
1.00017
1.00018
1.00019
1.0002
1.00021
1.00022
1.00022
1.00024
1.00026
1.00027
1.00028
1.00028
1.00032
1.00033
1.00035
1.00035
1.00035
1.00036
1.00042
1.00048
1.00065
1.00065
1.00076
1.00075
1.0006
1.00074
1.00087
1.00081
1.00058
1.00046
1.0002
1.00012
1.00009
1.00008
1.00008
1.00011
1.00013
1.00016
1.00018
1.0002
1.00021
1.00022
1.00022
1.00022
1.00022
1.00022
1.00022
1.00022
1.00021
1.00021
1.0002
1.0002
1.0002
1.00019
1.00019
1.00018
1.00017
1.00017
1.00016
1.00016
1.00016
1.00015
1.00016
1.00012
1.00016
1.0001
1.00019
1.00023
1.00011
1.00016
1.00026
1.00023
1.00028
1.00028
1.0003
1.00029
1.00033
1.00038
1.00037
1.00042
1.00044
1.00047
1.00051
1.00057
1.00057
1.00064
1.00073
1.00077
1.00083
1.00092
1.00109
1.00106
1.001
1.00094
1.00085
1.00072
1.00064
1.00058
1.0005
1.00044
1.0004
1.00036
1.00038
1.0003
1.00035
1.00055
1.0006
1.00049
1.00042
1.00045
1.00042
1.00035
1.00041
1.00038
1.00036
1.00032
1.00036
1.00032
1.0003
1.00027
1.00024
1.00021
1.00026
1.00025
1.00024
1.00023
1.00023
1.00023
1.00024
1.00025
1.00026
1.00028
1.00029
1.00031
1.00032
1.00033
1.00034
1.00035
1.00035
1.00036
1.00037
1.00037
1.00038
1.00039
1.0004
1.00041
1.00042
1.00043
1.00044
1.00046
1.00047
1.00049
1.00051
1.00055
1.00062
1.0007
1.00075
1.0007
1.00056
1.00051
1.00021
1.00013
1.00013
1.00013
1.00015
1.00017
1.00019
1.00021
1.00022
1.00023
1.00023
1.00023
1.00023
1.00023
1.00023
1.00022
1.00022
1.00022
1.00021
1.00021
1.0002
1.00019
1.00019
1.00018
1.00017
1.00016
1.00015
1.00014
1.00013
1.00013
1.00013
1.00013
1.0001
1.00015
1.0001
1.00012
1.00015
1.00023
1.00026
1.00021
1.00024
1.00024
1.00033
1.00036
1.00038
1.00032
1.00031
1.00035
1.00041
1.0004
1.00049
1.00042
1.0004
1.00038
1.00041
1.00043
1.00046
1.00049
1.00056
1.00061
1.00069
1.00072
1.00077
1.00087
1.00083
1.00089
1.00101
1.00095
1.00091
1.0009
1.00087
1.00074
1.00068
1.00058
1.0005
1.00045
1.00039
1.00041
1.00066
1.00069
1.00057
1.00049
1.00041
1.00044
1.0005
1.00045
1.00049
1.00053
1.00058
1.00064
1.00075
1.00065
1.00059
1.00052
1.00061
1.00064
1.00071
1.00075
1.0008
1.00076
1.0007
1.00063
1.00057
1.00069
1.00073
1.00077
1.0008
1.00092
1.00067
1.0007
1.00076
1.00077
1.00084
1.00089
1.0011
1.00116
1.00093
1.00098
1.00095
1.00113
1.0011
1.00116
1.00119
1.00122
1.00126
1.00121
1.00118
1.00121
1.00125
1.00131
1.00114
1.00125
1.00118
1.00118
1.00097
1.001
1.00105
1.00118
1.00128
1.00134
1.00138
1.00133
1.00141
1.0014
1.00133
1.00124
1.00135
1.00132
1.00127
1.00109
1.00106
1.00101
1.00098
1.00095
1.00091
1.00086
1.00085
1.00084
1.00079
1.0008
1.00103
1.00094
1.00097
1.00106
1.00111
1.00088
1.0008
1.00074
1.00072
1.00067
1.00061
1.00086
1.00094
1.00098
1.00098
1.00091
1.00065
1.00066
1.00076
1.00083
1.00092
1.0011
1.00107
1.0009
1.00101
1.00105
1.00107
1.0011
1.00105
1.00113
1.00117
1.0012
1.00111
1.0009
1.00089
1.00095
1.00112
1.00122
1.00102
1.00107
1.00124
1.00131
1.00117
1.0011
1.00121
1.00126
1.00117
1.00124
1.00135
1.00142
1.00139
1.0013
1.00114
1.00118
1.00135
1.00139
1.00147
1.0015
1.00141
1.00134
1.00147
1.0014
1.00131
1.00124
1.00132
1.00138
1.00133
1.00135
1.00141
1.00146
1.00155
1.00153
1.00156
1.00148
1.00151
1.00159
1.00163
1.00156
1.00151
1.00156
1.00152
1.0015
1.00145
1.00139
1.00124
1.00131
1.00127
1.00136
1.00129
1.00145
1.00151
1.00135
1.00141
1.00144
1.00156
1.00164
1.00157
1.00154
1.00164
1.00167
1.00161
1.00161
1.0017
1.00174
1.0017
1.00163
1.00166
1.00167
1.00176
1.00177
1.00179
1.00181
1.00183
1.00185
1.0019
1.00189
1.00186
1.00182
1.00179
1.00175
1.00165
1.00165
1.00175
1.0018
1.00171
1.00171
1.00173
1.00175
1.00186
1.00189
1.0018
1.00178
1.00179
1.00183
1.00193
1.00194
1.00185
1.00183
1.00181
1.00187
1.00194
1.00194
1.00189
1.0019
1.0019
1.00189
1.00191
1.00192
1.00193
1.00194
1.00195
1.00181
1.00188
1.00195
1.00192
1.00196
1.00195
1.00193
1.0019
1.00185
1.00179
1.00172
1.00166
1.00159
1.00154
1.00148
1.00135
1.00133
1.00128
1.00117
1.00114
1.001
1.00108
1.00114
1.0012
1.00127
1.00132
1.00142
1.00137
1.0013
1.00123
1.00152
1.00161
1.00169
1.00177
1.00182
1.00185
1.00189
1.00191
1.0019
1.00188
1.00186
1.00179
1.00191
1.00189
1.00191
1.00188
1.00185
1.00182
1.00179
1.00176
1.0017
1.00165
1.00159
1.00152
1.00144
1.00188
1.00185
1.00186
1.00188
1.00194
1.00198
1.00184
1.00188
1.00187
1.00185
1.00182
1.00179
1.00174
1.0017
1.00166
1.00162
1.00158
1.00143
1.00149
1.00149
1.00163
1.00167
1.00153
1.00156
1.0016
1.00158
1.00172
1.00172
1.00174
1.00176
1.00178
1.00179
1.00183
1.00182
1.00179
1.00176
1.00161
1.00166
1.00169
1.00166
1.00169
1.00173
1.00175
1.00174
1.00174
1.00185
1.0018
1.0018
1.00181
1.00183
1.00186
1.00185
1.00185
1.00187
1.00186
1.00175
1.00179
1.00179
1.00175
1.00175
1.00171
1.00168
1.00163
1.00158
1.00152
1.00145
1.00138
1.00149
1.00147
1.00154
1.00157
1.00164
1.00163
1.00169
1.00171
1.00176
1.00176
1.00177
1.00181
1.00182
1.00179
1.00175
1.00185
1.00184
1.00175
1.0017
1.00183
1.00179
1.00177
1.00182
1.00169
1.00162
1.00178
1.0019
1.0019
1.00189
1.0019
1.0019
1.00194
1.00188
1.00178
1.00188
1.00189
1.00178
1.00182
1.00177
1.0018
1.00182
1.0018
1.00176
1.00179
1.00179
1.00181
1.00164
1.00101
1.00099
1.00101
1.00097
1.00091
1.00068
1.00063
1.00088
1.00076
1.00076
1.00075
1.00069
1.00061
1.00065
1.00071
1.00075
1.00084
1.00055
1.00058
1.00089
1.00095
1.00063
1.0007
1.0007
1.00077
1.00062
1.00094
1.00087
1.00053
1.00061
1.00078
1.00083
1.00092
1.00088
1.00096
1.00076
1.0007
1.00084
1.00078
1.00083
1.00087
1.0008
1.00057
1.00052
1.00073
1.00079
1.00052
1.00058
1.00059
1.00053
1.00077
1.00073
1.00068
1.00062
1.00064
1.00055
1.00044
1.00022
1.0005
1.00022
1.0003
1.00031
1.00029
1.00027
1.00026
1.00026
1.00025
1.00024
1.00023
1.00023
1.00023
1.00023
1.00023
1.00023
1.00024
1.00025
1.00025
1.00026
1.00026
1.00027
1.00027
1.00028
1.00029
1.00029
1.0003
1.0003
1.0003
1.0003
1.00029
1.00028
1.00026
1.00024
1.0002
1.00016
1.00012
1.00008
1.00007
1.00008
1.0001
1.00009
1.00018
1.00015
1.00011
1.00014
1.00006
1.00005
1.00008
1.00012
1.00011
1.00013
1.00012
1.00008
1.0001
1.00009
1.00009
1.00004
1.00002
0.999975
0.999879
0.999918
0.99991
0.999803
0.999349
0.999346
0.999789
1.00001
0.999867
0.999823
0.999945
0.999908
0.999926
0.99994
0.999899
0.999955
0.999924
0.999943
0.99996
0.999959
0.99996
0.999957
0.999983
0.999962
0.999914
0.999861
0.999908
0.999965
0.999966
0.999952
0.999854
0.99961
0.99975
0.999432
0.998889
0.998889
0.99934
0.999727
0.999888
0.999932
0.999934
0.999977
1.00002
1.00003
1.00003
1
0.999988
0.999974
0.999997
1.00003
1.00016
1.00033
1.00061
1.00075
1.00079
1.00033
1.00007
1.00012
1.00013
1.00008
1.00011
1.00009
1.00012
1.00009
1.00014
1.00019
1.00019
1.00017
1.00011
1.00012
1.00008
1.00002
1
0.999999
0.999959
0.999882
0.999753
0.999457
0.999717
0.999315
0.999105
0.999358
0.205197
0.332954
0.327663
0.50292
0.662748
0.781198
0.860052
0.915462
0.91562
0.952637
0.973627
0.985944
0.992739
0.996385
0.998102
0.998937
0.99921
0.998323
0.996449
0.992629
0.98541
0.972565
0.950357
0.914743
0.862019
0.860344
0.784236
0.785091
0.779645
0.662048
0.507676
0.340082
0.211322
0.217723
0.212186
1.00113
1.00085
1.00054
1.00028
1.00023
1.00025
1.0006
1.00075
1.00079
1.00076
1.0004
1.00056
1.00035
1.00029
1.00011
1.00006
1.00021
1.00022
1.00029
1.0003
1.00022
1.00016
1.00016
1.00013
1.00011
1.00011
1.00009
0.999996
1.00012
1.00007
1.00018
1.00037
1.00027
1.0002
1.00013
1.00014
1.0001
1.0001
1.00008
1.00012
1.00009
1.00013
1.00011
1.0001
1.0001
1.0001
1.00008
1.00011
1.00019
1.0002
1.00013
1.00009
1.00008
1.00005
1.00005
1.00003
1.00003
1.00001
1.00002
0.999997
0.999993
0.99996
0.999917
0.999829
0.999798
0.408267
0.521113
0.671659
0.783954
0.861143
0.914625
0.949882
0.97188
0.984741
0.991972
0.995885
0.997949
0.99901
0.999533
0.999736
0.999499
0.999017
0.998012
0.99602
0.992207
0.985118
0.972437
0.950606
0.915332
0.861833
0.785409
0.676269
0.515146
0.50179
1.00047
1.00019
1.00016
1.00017
1.00019
1.0001
1.00005
1.00004