/*--------------------------------*- C++ -*----------------------------------*\
  =========                 |
  \\      /  F ield         | OpenFOAM: The Open Source CFD Toolbox
   \\    /   O peration     | Website:  https://openfoam.org
    \\  /    A nd           | Version:  7
     \\/     M anipulation  |
\*---------------------------------------------------------------------------*/
FoamFile
{
    version     2.0;
    format      ascii;
    class       surfaceScalarField;
    location    "18.8";
    object      alphaPhi0.water;
}
// * * * * * * * * * * * * * * * * * * * * * * * * * * * * * * * * * * * * * //

dimensions      [0 3 -1 0 0 0 0];

internalField   nonuniform List<scalar> 
42590
(
-0.0620095
0.000139597
-0.0510245
-0.0605612
0.0489647
-0.0108916
-0.0971926
-0.00289242
0.0184206
-0.122741
0.00778833
0.0146746
-0.118021
-0.0047505
0.00978424
-0.14992
-0.00411923
0.00481746
-0.109117
3.66817e-05
0.00898802
-0.106309
-0.00213918
0.00575369
-0.085628
0.00384173
-0.000887227
-0.0462157
0.00025357
-0.0067519
-0.048396
-0.000308405
-0.0096578
-0.085235
0.00353657
-0.00515244
-0.105181
-0.00249285
-0.0100123
-0.107632
1.55871e-05
-0.0147583
-0.147899
-0.00408586
-0.0183996
-0.116544
-0.00473685
-0.0486353
-0.12137
0.00775555
0.0613426
-0.0108919
-0.0962443
-0.00284486
-0.0505901
-0.0599238
-9.54527e-05
-0.0675315
0.00614377
-0.0681358
0.00612301
0.00939887
0.000117901
-0.0804723
0.00281753
0.0222011
-0.107267
-0.00273017
0.0158959
-0.122331
0.00589201
0.0144937
-0.112077
-0.00454475
0.0115413
-0.143488
-0.00348301
0.00764911
-0.106032
0.00080408
0.00875943
-0.10472
-0.00270307
0.00355974
-0.083737
0.00330311
-0.000806648
-0.043156
0.00130209
-0.00457417
-0.0453326
0.000699378
-0.00948881
-0.0833274
0.00300181
-0.00796539
-0.103652
-0.00305705
-0.011747
-0.104635
0.000781415
-0.0145485
-0.141652
-0.00344949
-0.0158419
-0.11073
-0.00452488
-0.0220788
-0.120988
0.00585049
-0.00943672
-0.106247
-0.00264232
-0.0797649
0.00291338
-0.00011401
0.00584419
-0.0859569
0.000459743
0.00579352
-0.086692
0.000311
0.0135945
-0.112567
-0.00250297
0.0112344
-0.123645
0.00367178
0.0123932
-0.10995
-0.00328813
0.0117606
-0.139915
-0.00294399
0.00825736
-0.103532
0.000999863
0.00861454
-0.102446
-0.00263457
0.00313865
-0.0815504
0.00328419
-0.000743911
-0.0408879
0.00161007
-0.00414008
-0.0429451
0.00100419
-0.00934548
-0.0811114
0.0029848
-0.00856644
-0.10144
-0.00299437
-0.0119477
-0.102234
0.000977409
-0.0124637
-0.138222
-0.0029181
-0.011215
-0.108706
-0.00327605
-0.0135083
-0.122339
0.00364062
-0.111535
-0.00237767
-0.0041095
0.00943475
-0.114483
-0.00238087
-0.000114245
-0.0891725
-0.000780507
0.00405715
-0.0899288
-0.000935933
0.00952376
-0.1155
-0.00253515
0.00838705
-0.124753
0.00224228
0.0103652
-0.109338
-0.00259188
0.0112102
-0.138117
-0.00264457
0.0082552
-0.101682
0.00110354
0.00849683
-0.100248
-0.00244205
0.00308139
-0.0794517
0.00331235
-0.000693166
-0.038866
0.00174836
-0.00404335
-0.0407452
0.00114589
-0.00919474
-0.0789667
0.00300265
-0.0085519
-0.0992852
-0.00280134
-0.0114003
-0.10046
0.00107158
-0.0104407
-0.136556
-0.00262939
-0.00838673
-0.108175
-0.00258734
-0.1235
0.00220742
-0.00747144
0.00688019
-0.124245
0.00133468
-0.00330316
-0.116133
-0.00251968
-0.000111657
-0.090882
-0.00148261
0.00325186
-0.0916517
-0.00164164
0.00755657
-0.117135
-0.00267084
0.0068803
-0.125457
0.00137869
0.00902715
-0.109224
-0.00226254
0.0106443
-0.137179
-0.00255701
0.00811593
-0.100303
0.00114785
0.00837681
-0.0982713
-0.00223967
0.0031119
-0.0775287
0.00333838
-0.000648365
-0.0369415
0.00183165
-0.00402818
-0.038606
0.00123633
-0.00904363
-0.0769697
0.00301517
-0.0084
-0.0973316
-0.00259996
-0.010814
-0.0991528
0.00110399
-0.00909982
-0.135716
-0.00255628
-0.108131
-0.0022641
-0.00608594
0.00827652
-0.108205
-0.00211927
-0.00650847
-0.124646
0.000822577
-0.00292972
-0.11709
-0.00262278
-0.000111185
-0.0918329
-0.00186802
0.00287269
-0.0926108
-0.00202571
0.00659625
-0.118091
-0.00276777
0.00608267
-0.125826
0.000881802
0.00822494
-0.109257
-0.00211007
0.0102782
-0.136682
-0.00255077
0.00798925
-0.0991796
0.00116421
0.00824555
-0.0964596
-0.00206878
0.00315751
-0.075785
0.00334185
-0.000603223
-0.0350795
0.00189474
-0.00402346
-0.0364976
0.00130783
-0.00886809
-0.0751378
0.00300996
-0.00823428
-0.0955497
-0.00241787
-0.0104139
-0.0980771
0.00110232
-0.135281
-0.00257166
-0.00776236
0.0100974
-0.134974
-0.00264368
-0.00563709
-0.10826
-0.00207022
-0.00597028
-0.124765
0.0004529
-0.00274276
-0.1176
-0.00271839
-0.000109153
-0.0923379
-0.00212884
0.00268768
-0.0931195
-0.00228899
0.00605946
-0.1186
-0.00286307
0.00564683
-0.125938
0.000524883
0.00772592
-0.109283
-0.00205289
0.00999511
-0.136347
-0.0026043
0.00784985
-0.09821
0.00117535
0.00809678
-0.0948109
-0.00189529
0.00319958
-0.0742314
0.00334244
-0.000551725
-0.0332926
0.00196086
-0.00400115
-0.0344359
0.00138394
-0.00863677
-0.0734967
0.00299235
-0.00806339
-0.0938819
-0.00224202
-0.0971288
0.00108634
-0.00976628
0.00783977
-0.0962805
0.0010776
-0.00728906
-0.13474
-0.00270978
-0.00526612
-0.108247
-0.0020354
-0.00548858
-0.124593
5.14305e-05
-0.00257819
-0.117697
-0.00281328
-0.000108033
-0.0924377
-0.00237044
0.00252976
-0.0932418
-0.0025162
0.00559132
-0.118715
-0.00294631
0.00528057
-0.125777
0.000150348
0.00728483
-0.109274
-0.00201299
0.00971624
-0.136119
-0.00265854
0.00768048
-0.0973663
0.00119252
0.0078794
-0.0933174
-0.00169092
0.00322065
-0.0729216
0.00334911
-0.000499472
-0.0316346
0.00205927
-0.00395985
-0.0324685
0.0014894
-0.00833884
-0.0720996
0.00298066
-0.0923527
-0.00202634
-0.00752696
0.00793434
-0.0910223
-0.0017371
-0.00930313
-0.0955728
0.00107016
-0.00666253
-0.134641
-0.00273826
-0.00472333
-0.108191
-0.00199426
-0.0048092
-0.124144
-0.000361415
-0.00233716
-0.117287
-0.0028823
-0.000107092
-0.0920231
-0.00264467
0.00227784
-0.0928343
-0.00279298
0.00489917
-0.118328
-0.00300822
0.00474663
-0.125339
-0.000283119
0.00668185
-0.109249
-0.00195868
0.00928882
-0.136059
-0.00266476
0.00740516
-0.0966898
0.00120835
0.00754749
-0.0920496
-0.00140772
0.00317943
-0.0719299
0.00337785
-0.000449004
-0.0302055
0.00219711
-0.00386016
-0.0306911
0.00163022
-0.0710095
0.00298679
-0.00734348
0.00366461
-0.0703505
0.0030223
-0.00705315
-0.0899904
-0.00131905
-0.00856529
-0.0951232
0.00106479
-0.00562447
-0.134886
-0.00269207
-0.00372265
-0.108258
-0.00183301
-0.00345932
-0.123396
-0.00100897
-0.00180368
-0.116008
-0.00293379
-0.00011193
-0.0906308
-0.00308403
0.00172903
-0.0914528
-0.00322281
0.00352577
-0.117082
-0.00304098
0.00374172
-0.124628
-0.000925077
0.00565214
-0.109367
-0.00179027
0.00858196
-0.136387
-0.00259928
0.00696735
-0.096296
0.00122269
0.00702983
-0.0911115
-0.000997456
0.00302415
-0.0713532
0.00343146
-0.000405165
-0.0292747
0.00249661
-0.0293518
0.00191902
-0.00326479
0.000373155
-0.0289046
0.0024454
-0.00652138
-0.0702071
0.00311736
-0.00641416
-0.089403
-0.000690683
-0.0073987
-0.0951968
0.00106144
-0.00380008
-0.135995
-0.00248544
-0.00185562
-0.108757
-0.00144319
-0.000788934
-0.122326
-0.0021327
-0.000634127
-0.113236
-0.00292553
-0.000113953
-0.0873056
-0.00384521
0.000529185
-0.0881203
-0.00397563
0.000797544
-0.114344
-0.00300478
0.00184538
-0.123617
-0.00205528
0.0038271
-0.109955
-0.00139134
0.00743533
-0.137618
-0.00237292
0.0063585
-0.0964632
0.00124672
0.00625338
-0.0906249
-0.000378293
0.00264064
-0.0712687
0.00353172
-0.0292934
0.00303333
-0.000359053
-0.00194557
-0.0309181
0.00393228
-0.00255154
-0.0300493
0.00333949
-0.00536994
-0.0707082
0.00332404
-0.0058065
-0.0891665
0.000204228
-0.00591195
-0.0962246
0.00113761
-0.00075165
-0.139156
-0.0019945
0.00169247
-0.110541
-0.000656056
0.00441051
-0.120975
-0.00406512
0.00155908
-0.107692
-0.00268946
-0.000105548
-0.0805687
-0.0050717
-0.00167691
-0.0813548
-0.00519352
-0.00447633
-0.108811
-0.00273173
-0.00174881
-0.122339
-0.00400191
0.000741739
-0.111847
-0.000594448
0.00593447
-0.140951
-0.00185544
0.00576937
-0.0976115
0.00131687
0.0051176
-0.0904786
0.000508769
-0.0718377
0.00374624
6.27527e-05
-0.00337338
-0.0722292
0.00370409
-0.000376322
-0.0362292
0.00575471
-0.00071241
-0.0348671
0.00515922
-0.00361164
-0.0710815
0.00327675
-0.00673732
-0.0870165
0.000979876
-0.00437993
-0.100368
0.00179208
0.00386823
-0.146413
-0.000983817
0.00749142
-0.115064
0.000904842
0.0139341
-0.120243
-0.00717043
0.00564039
-0.0971474
-0.00224758
-8.3726e-05
-0.0676897
-0.00715288
-0.00578026
-0.0683834
-0.00727319
-0.0141072
-0.0982081
-0.00227297
-0.00761854
-0.121685
-0.007139
-0.00392446
-0.116541
0.00100451
0.00441015
-0.14846
-0.000820172
0.00674361
-0.101914
0.00197337
-0.0883709
0.00126807
0.00145964
-0.0220748
-0.0664301
-0.00132221
-0.011756
-0.0588583
-0.000150118
-0.000399666
-0.0599405
0.0123621
0.0109947
-0.0578698
0.0116162
-0.00166994
-0.0579378
-0.000474621
-0.0217958
-0.0653468
-0.00153908
0.00084966
-0.128901
0.00589444
0.00900157
-0.154218
-0.000338979
0.0121504
-0.119609
0.00140058
0.0400926
-0.137875
-0.010305
0.0083413
-0.00202458
-0.0633671
-3.7085e-05
-0.00924525
-0.0500636
-0.00846241
-0.0506012
-0.00935444
-0.0405528
-0.0640714
-0.00204327
-0.0123227
-0.13963
-0.0102813
-0.00909767
-0.121272
0.00151014
-0.000859715
-0.156553
-0.000137091
-0.131014
0.00617399
-0.0179698
0.0139736
-0.131658
0.00464692
0.000904524
0.0454245
0.00359542
-0.0678903
0.0371221
0.00435073
-0.049409
0.00884387
-0.0427355
-0.0643635
0.0217219
0.00785644
-0.00132888
-0.00623398
-0.0734272
0.0189763
-0.0023462
-0.00236336
0.015291
-0.0821404
0.00344578
-0.0614444
0.067464
-0.0814999
-0.000319841
0.0178079
-0.000375469
0.0167537
-0.00891412
-0.0653997
0.0160765
0.036391
-0.000956393
-0.0484227
0.00407767
-0.0446447
-0.0422433
0.0176321
-0.0666611
0.00343164
0.0138051
-0.129432
0.00436751
0.0136315
-0.152785
-0.00125032
0.00798232
-0.113313
-0.000640586
-0.00946801
-0.117537
-0.00288242
9.00057e-05
-0.177235
-0.00305977
0.170742
0.00970525
-0.179176
0.172565
-0.00299807
-0.00803661
-0.11915
-0.0027327
-0.0137318
-0.114984
-0.000587788
-0.155227
-0.00107349
-0.0238892
0.020995
-0.149411
-0.00291517
-0.141497
0.00125299
-0.0218314
0.0322676
-0.150824
-0.00110101
-0.00890603
-0.0946338
-0.000423838
0.00456898
-0.0822787
0.00736529
-0.000175857
-0.0903283
0.0135813
0.079322
-0.0881864
-0.004576
0.0132717
-0.00359826
0.0172114
0.00226842
-0.0602542
0.00597022
0.0150618
-0.0806426
0.00119372
0.0236522
-0.139048
0.00103466
0.0208633
-0.146937
-0.00304865
0.00780236
-0.0973432
-0.00290375
-0.000716753
-0.0992883
-0.00972491
0.000198265
-0.160454
-0.0176896
0.00102231
-0.16231
-0.0176815
-0.00776181
-0.100724
-0.00963754
-0.098836
-0.0029071
-0.0386224
0.00680507
-0.0615386
-0.00547708
-0.151403
-0.00434983
-0.0364392
0.00478093
-0.117711
-0.00202685
-0.033524
-0.151746
-0.00198083
-0.019532
-0.10629
-0.00232765
-0.0344263
-0.0873156
0.0199386
-0.00667787
0.0319461
-0.0631272
0.00343775
0.0258435
-0.0439901
-1.38275e-05
0.0114851
3.62027e-06
-0.0325352
-0.03123
-0.0251452
-0.0318013
0.03394
-0.00648057
0.00318602
-0.0618704
0.0807351
-0.0857321
0.0193305
0.0196144
0.00876361
0.00715136
0.0216109
-0.0928393
-0.000643536
0.0320393
-0.148156
-0.00130986
0.0383625
-0.148819
-0.0044319
0.00685524
-0.0604401
-0.00538995
-0.00637481
-0.0719971
-0.0140563
0.000349676
-0.142218
-0.024955
0.00691096
-0.143871
-0.0249938
-0.0729362
-0.0140659
-0.108431
-0.0821849
0.0561463
-0.116683
0.0306038
-0.0175642
-0.0305226
0.0523383
-0.112853
-0.0256407
-0.0511077
-0.0990656
0.00194915
-0.0548138
-0.146535
-0.00149201
-0.0174425
-0.142128
-0.00152149
-0.0341427
-0.0979154
0.0273102
-0.0273382
-0.0692473
-0.000675893
0.000206878
-0.101416
0.0298896
0.0429145
0.0297641
0.0271072
-0.0995726
0.0112813
-0.0679519
0.0509273
-0.000303612
0.00134841
0.0636762
-0.102478
-0.000724848
0.0341296
-0.0675331
0.0176164
-0.0963135
0.0271044
0.10426
-0.139211
0.0545714
-0.00199323
0.0333147
-0.00255185
0.0363807
-0.148996
-0.00221475
0.00532131
-0.00209222
-0.115658
0.0309575
0.106984
-0.0178859
-0.114729
0.0806434
-0.0940164
0.00540529
0.0389311
0.0551985
-0.0380991
-0.011643
0.0854993
-0.115134
-0.0330155
-0.010306
0.115933
-0.104305
-0.0385013
0.00770517
-0.00186072
0.0259335
-0.0474592
-0.0919644
0.0110523
0.0306291
-0.0510065
-0.0971313
0.052645
-0.110801
0.0146562
-0.00323511
-0.0527866
0.000375198
-0.0149239
-0.0496661
0.0788743
-0.0143646
-0.0502636
0.0798889
-0.0148819
-0.0541734
0.0956242
-0.00347075
-0.151302
-0.0006499
0.0475194
-0.00216736
-0.000945193
-0.121019
-0.0271612
-0.0206105
-0.0204482
-0.0739518
-0.0726117
-0.00114423
-0.0459132
-0.0850618
-0.132982
-0.00109014
-0.0921207
-0.132779
-0.00227571
-0.0262007
0.038646
0.000474976
-0.105032
0.0812887
0.0401628
-0.0990826
-0.0485624
-0.0472157
-0.0841335
-0.00334441
0.0809088
0.00566567
-0.00835695
0.0978688
-0.069879
-0.109418
-0.127454
0.117569
-0.089465
-0.0954943
0.0260556
-0.0489479
-0.00905725
-0.0829195
0.0139807
-0.0155341
-0.0110133
-0.0777069
-0.001675
0.00885113
-0.0123815
-0.0854182
-0.014317
0.0311169
-0.00908202
-0.102799
-0.0317718
0.0569224
-0.00776139
-0.136098
-0.0531273
0.0932162
-0.00677714
-0.116156
-0.147461
0.130495
-0.00296035
-0.0893639
-0.160506
0.130605
0.00312344
-0.0118622
-0.130904
0.0464488
0.00696457
-0.0819952
0.0756379
-0.0325015
0.0270083
-0.0548304
-0.0433218
0.0521941
-0.0360275
-0.0866752
0.0122214
0.00327501
0.0163572
-0.0938785
0.0200442
-0.0346901
0.0218644
-0.0878694
-0.000794455
-0.019601
0.014401
-0.0551685
-0.0556459
0.0678104
-0.0448581
-0.0758833
0.00293137
0.00649099
0.0112984
-0.0900932
0.00342254
0.00152581
0.00926907
-0.105321
0.00365444
0.00731197
0.00427193
-0.0957069
0.00722812
-0.0272245
0.0103925
-0.0989114
0.00419483
-0.00847789
0.00749464
-0.101505
-0.000667406
-0.00126554
0.00453179
-0.102793
-0.00419587
0.00292957
0.00255976
-0.103183
-0.00635516
0.00547929
0.00127025
-0.103004
-0.00773831
0.00710412
0.000458983
-0.102454
-0.00867129
0.00820163
-7.58411e-05
-0.101704
-0.00939981
0.00901401
-0.000361174
-0.100793
-0.0100162
0.00970167
-0.000592427
-0.099743
-0.0105999
0.0103476
-0.000795109
-0.0985364
-0.0111975
0.0109814
-0.000987447
-0.0971784
-0.0118293
0.0116633
-0.00118912
-0.095633
-0.0125227
0.012403
-0.00142286
-0.0938503
-0.0132978
0.0132308
-0.00171301
-0.0917714
-0.0141842
0.0141737
-0.00206573
-0.0893201
-0.0151895
0.0152231
-0.00248239
-0.0864121
-0.0163349
0.0163935
-0.00296386
-0.0829513
-0.0176419
0.0176978
-0.00351398
-0.0788065
-0.0191509
0.0191638
-0.00415446
-0.0738392
-0.0208955
0.0208602
-0.0049281
-0.067791
-0.0230306
0.0229166
-0.00592932
-0.0604451
-0.0256907
0.0255757
-0.00722466
-0.0516817
-0.0289888
0.0290395
-0.00880667
-0.0412152
-0.0321224
0.0320964
-0.0104323
-0.0315465
-0.031178
0.0331649
-0.0116482
-0.00746896
-0.0215282
0.00399942
-0.00654254
-0.00299716
-0.00301905
-0.00778674
0.00634301
-0.035303
0.0173059
0.0293993
-0.0143941
-0.0562735
0.0278187
0.0460804
-0.0529158
-0.0409075
0.0190131
0.0336849
-0.0680631
-0.0369889
0.00620844
-0.0101288
-0.024846
-0.0268565
0.00774102
0.00697114
-0.013366
0.010553
-0.0196293
-0.00240477
-0.00831926
-0.0148622
-0.0170475
-0.0133308
0.00599182
-0.000981647
-0.0105874
0.00870763
-0.0135049
0.00205274
0.0189432
-0.0152263
-0.00998515
-0.00432115
0.0059712
0.0187611
-0.00579229
0.0317852
-0.0188766
-0.00693801
0.0377947
0.0323965
-0.0172635
-0.0211447
-0.0128347
0.00279022
0.0406497
0.00718782
-0.0287123
-0.0042393
0.05251
-0.00395831
0.000161407
-0.00523097
0.00111111
-0.0039048
0.00308404
0.00348449
0.00142512
0.00559727
-0.0144126
-0.0027526
0.00408394
0.00515545
-0.00300385
0.00988554
-0.0164455
0.00102561
0.0140529
0.0437501
-0.0386192
-0.0129261
0.0176081
0.0159876
0.00282496
0.00649835
0.0184371
-0.00840767
0.0122517
0.00523844
0.0069039
0.00548794
0.0156483
-0.0267191
0.0142183
0.00551212
-0.0024616
0.0035549
0.0131241
0.00360649
0.00957983
0.00412124
0.0117373
-0.00459278
0.012266
0.0107694
-0.00985251
-0.0237982
0.0415387
0.0441965
-0.0154889
0.0867749
-0.0301979
-0.0123817
0.0548774
-0.00798422
0.0814229
0.0553723
0.0357592
-0.017235
0.0551229
0.0230468
0.00502338
0.0584095
0.00875659
0.00526598
0.0629603
-0.0161511
0.00858211
0.0678709
-0.0362073
0.00977082
0.0722618
-0.0452258
0.00966406
0.0765032
-0.0456959
0.0093394
0.0810425
-0.0417259
0.00820433
0.0853551
-0.037432
0.00743454
0.0890427
-0.0338086
0.00709531
0.0920691
-0.0307946
0.00687636
0.094541
-0.0282883
0.00666806
0.0965516
-0.0260822
0.00643122
0.0981731
-0.0241586
0.00620295
0.0994817
-0.0224829
0.00598509
0.100542
-0.0210291
0.00578439
0.101418
-0.0197688
0.00559481
0.10214
-0.0186602
0.00541653
0.102751
-0.0176881
0.00524799
0.103282
-0.0168191
0.00509082
0.103736
-0.0159877
0.00493559
0.104117
-0.0151842
0.00478941
0.104423
-0.0143465
0.00464221
0.104658
-0.0133941
0.00449141
0.104823
-0.0122026
0.00430262
0.104965
-0.0105495
0.00405723
0.105244
-0.00816725
0.00369753
0.106378
-0.00487891
0.00308407
0.10954
-0.00107091
0.00211159
0.112539
0.00199222
0.00224554
0.106767
0.0050502
0.00438514
0.0908628
0.0132489
0.00608671
0.0309809
0.00717536
0.152779
-0.157173
0.0295562
0.00583159
0.115746
0.0311545
0.00509558
0.0935099
0.0410822
0.00120853
0.0578561
0.00456342
0.0810053
-0.159514
0.00547717
0.102474
-0.180089
-0.00186732
0.0262105
-0.0654897
-0.00569262
0.136505
-0.122398
0.0568625
-0.0447484
0.125531
-0.0902405
0.0481052
0.091173
-0.016191
0.0187908
0.077465
-0.00987991
0.0092813
0.0752129
0.000423531
0.000162129
0.0964249
0.00421138
-0.011433
0.0550994
-0.0316879
-0.0326002
0.0348421
0.00430429
0.0443435
-0.121747
0.000533944
0.0442756
0.000352835
-0.0225737
-0.0338034
-0.0436992
-0.0217075
0.0486634
-0.0328627
0.00361767
-0.0532143
0.0800507
0.0264185
-0.0976326
0.0398354
-0.0373851
-0.0464007
0.0913905
-0.102229
-0.000118869
0.0846412
-0.129465
-0.00298078
0.143619
-0.00139127
-0.129911
0.0723368
-0.00179388
-0.11071
-0.0539919
-0.00290013
0.118358
-0.0974883
0.0607367
-0.00414262
-0.0711937
-0.00183103
0.0352354
-0.0693185
0.0147487
-0.0763124
0.0368506
-0.0915012
-0.0770763
0.058426
0.107306
-0.0936362
0.0551107
0.0380991
0.00548489
-0.040262
0.0444394
0.0728992
0.0450859
0.0207748
-0.0011198
0.00364342
-0.0207624
-0.119264
-0.0277242
0.149697
0.000805913
-0.0270717
-0.0548911
-0.0376871
-0.055714
-0.0268048
-0.0576976
-0.0423081
0.00510845
0.0572151
-0.0360758
-0.0958646
0.108952
-0.0346998
-0.0917171
-0.0794172
0.00208957
-0.104804
-0.00210723
-0.116711
0.085414
-0.0742712
0.000775042
-0.138745
-0.0673101
-0.000104717
-0.136447
-0.0525375
0.00130767
-0.127724
-0.025821
0.00157941
-0.124939
0.00444991
0.00162913
-0.127505
0.0330877
0.000608829
-0.133615
0.0632991
-0.000252363
-0.130464
0.090175
-9.39995e-05
-0.106295
0.103846
0.00249578
-0.0210183
0.0401358
0.00520457
-0.0965944
-0.0430723
0.0826107
0.0360503
0.0670474
-0.0415377
-0.0264133
0.0405616
0.00984257
-0.0972839
0.0463822
-0.0036949
0.0281946
-0.0379917
-0.00286155
-0.0196973
-0.0367196
-0.0784172
-0.00329608
0.0216084
0.0221218
-0.0974192
-0.00426352
0.0265614
-0.0306901
-0.0381443
-0.0258792
-0.00269348
-0.0465628
0.00860682
0.0102997
-0.00302922
-0.0859365
0.019623
0.0236636
-0.00389601
-0.0960266
0.0210814
-0.00448468
-0.106972
0.0171394
-0.00465139
-0.103106
0.00795427
-0.00448605
-0.0282434
-0.0402234
-0.0319576
-0.00267168
-0.0367641
0.00556739
0.0056891
-0.00273131
-0.0433281
0.00450674
-0.0034907
0.00555368
-0.0465217
0.00209142
-0.00383322
0.00494118
-0.0479131
0.000756757
-0.00398523
0.00462524
-0.0483263
2.95526e-05
-0.00406988
0.00445832
-0.0481195
-0.000488331
-0.00412356
0.00440962
-0.047505
-0.000821946
-0.00422279
0.00443416
-0.0466175
-0.00106546
-0.00432238
0.00450393
-0.0455307
-0.00127623
-0.00440854
0.00460122
-0.0442971
-0.00146781
-0.00449572
0.00473295
-0.0429131
-0.00166886
-0.00456684
0.00485451
-0.0413731
-0.00187125
-0.00465251
0.00498651
-0.0396653
-0.00209632
-0.00472749
0.00511894
-0.0377457
-0.00234971
-0.00480575
0.00523884
-0.0355824
-0.0026289
-0.00488592
0.00535461
-0.0331293
-0.0029363
-0.00497176
0.0054583
-0.0303486
-0.00325647
-0.00508593
0.00556514
-0.0271856
-0.00358609
-0.00524753
0.00567412
-0.0235465
-0.00391598
-0.0054848
0.00576531
-0.0192531
-0.00424944
-0.0058331
0.00579284
-0.0139305
-0.00459973
-0.0063472
0.00562815
-0.00692341
-0.00502433
-0.00706483
0.00508606
0.00311941
-0.00564618
-0.00828014
0.00388781
0.0152994
-0.00529786
-0.00979835
0.00292096
0.0226062
-0.000601346
-0.0086541
0.00195355
0.00777809
0.0155325
-0.00634017
0.00564385
0.00712813
0.000113839
0.000533841
0.00222494
0.00559109
-0.000691863
-0.0278483
0.0249378
-0.00264162
-0.0113086
0.00299687
0.0132031
0.00805848
0.0247985
0.0152092
0.0346451
0.0135525
0.0428489
0.0123528
0.0494818
0.0116881
0.0549373
0.0111583
0.0595057
0.0106817
0.0633684
0.0102524
0.0666514
0.00985667
0.0694489
0.00949038
0.0718502
0.00914361
0.0739189
0.00881216
0.0757258
0.00849947
0.0773244
0.00819286
0.0787307
0.00790624
0.0799776
0.00763375
0.0810441
0.00736045
0.0818921
0.00710301
0.0824059
0.00686932
0.0823886
0.00663741
0.0814576
0.006446
0.0789611
0.00619143
0.0741092
0.00568887
0.0653815
0.00476887
0.00350722
-0.00125808
0.0288778
-0.0503744
0.0381398
-0.00526775
0.0266906
-0.00367659
-0.0571345
-0.0329502
0.117351
-0.0489331
-0.0444191
0.00347265
-0.052805
0.000872391
0.00402874
-0.0570581
-0.00234086
0.00276673
-0.0589665
-0.00409909
0.00202795
-0.0595078
-0.00510939
0.00158581
-0.0592649
-0.00572061
0.00135857
-0.0585993
-0.00614583
0.00126128
-0.057673
-0.00647427
0.0012286
-0.0565598
-0.00675236
0.00123318
-0.0552985
-0.00702018
0.00126525
-0.0538864
-0.0072859
0.00130879
-0.0523197
-0.00757581
0.00135838
-0.0505586
-0.00789951
0.00141263
-0.0485671
-0.00825033
0.00145494
-0.0463161
-0.00862645
0.00149162
-0.0437462
-0.00904329
0.00150397
-0.0408104
-0.00950179
0.00148274
-0.0374444
-0.0100203
0.00140997
-0.033559
-0.0106224
0.0012558
-0.0289808
-0.011366
0.000958793
-0.0234224
-0.0123208
0.00041989
-0.0165096
-0.0136404
-0.00033188
-0.00804791
-0.0155521
-0.00118403
0.0033423
-0.0183102
-0.00287334
0.0150816
-0.0147081
-0.005679
0.0040208
0.00460244
0.000122807
0.00506533
-0.000933706
0.00378765
-0.00186506
0.0031504
0.00115325
0.0030341
-0.000402297
0.0142596
0.0105401
-8.09545e-05
-0.0235594
-0.0441576
0.0497855
-0.00217837
0.0108092
0.00329084
-0.058702
0.0112485
-0.0726722
0.0719844
0.00397647
-0.0500701
-0.00847389
-0.0141292
-0.0448812
0.0192101
-0.0524865
0.0280854
0.0411582
-0.0171302
-0.0325946
-0.0363159
-0.00427341
0.00593768
-0.0344188
0.000317513
0.027295
0.00252996
0.000333644
-0.0134307
-0.0215868
0.000262942
-0.0131278
0.000718635
-0.0207006
0.0334374
-0.0219396
0.0111763
-0.0023674
-0.00344386
0.00419565
-0.0175569
-0.00513594
0.0182666
-0.0116032
-0.00367111
-0.00643921
0.00616417
0.0163647
-0.00426513
0.0214998
-0.0105974
-0.00473848
0.0516552
0.0157899
-0.0353925
-0.0453125
0.0181225
0.0505957
0.028247
-0.0319518
0.0388047
-0.0363751
-0.00441111
-0.00307141
-0.00442302
0.00308282
-0.00533589
-0.000104289
0.00424917
0.00335106
0.00516431
-0.0181017
1.65734e-06
0.0091682
0.00348835
-0.00841006
0.0101569
-0.0112305
-0.0048572
0.0272635
0.00368772
-0.0207114
-0.00020747
-0.0139779
0.0393048
0.00234426
-0.000249306
-0.0135245
-0.00355385
-0.00572907
-0.014273
0.000106742
-0.000865794
-7.13681e-05
-0.00961885
-0.00371781
-0.00281366
-0.0116681
-0.00394476
-0.00261413
-0.0037683
-0.00803735
-0.00430307
0.00950397
-0.000718797
-0.00709748
0.00881121
-0.00662778
-0.003201
-0.00328778
0.0156473
0.00525051
-0.0052228
-0.00686515
0.0143984
-0.00709338
-0.0148161
-0.00101426
-0.00373795
-0.0125622
-0.00718546
-0.00275824
0.0123282
-0.00995776
-0.00578634
-0.00130925
0.00212568
0.000385363
-0.00785099
-0.000726861
-0.00389206
-0.00158643
0.0016842
-0.00601317
-0.00292884
-0.0053756
-0.00237827
-0.00508009
-0.0020998
-0.00433101
-0.0053482
0.000558084
0.00674161
0.0088403
-0.00693992
-0.0040591
-0.00217477
0.0114039
-0.00556431
0.00600529
-0.00300659
-0.00741607
0.00889239
-0.00530168
0.0104117
-0.00805066
-0.00619651
-0.00358216
0.0146401
-0.00898935
-0.00522734
0.0147751
-0.0117856
-0.00722857
0.00176374
-0.00425322
0.010399
-0.00377909
-0.00485786
0.0300965
0.0271526
-0.0299074
-0.0169447
-0.00463976
0.0017647
0.0363858
-0.00341658
0.0394575
-0.0141579
-0.0143257
-0.0263472
0.000776138
0.0793454
-0.00387384
0.00363143
-0.0140534
0.00654799
-0.0170934
0.0083435
-0.00758202
0.00392758
0.0296507
-0.0430907
0.0119227
0.0149042
-0.0484633
0.0175263
0.00956816
-0.0112455
-0.00467476
0.0601924
0.0726165
0.0764487
-0.0504117
0.0406205
-0.0790802
-0.0111505
0.0156103
0.0448956
0.0232606
0.011789
0.0224634
0.0279353
-0.0733394
0.0115687
0.00784457
-0.0039312
0.00303352
0.012466
0.00705103
0.0114789
0.00548191
-0.0159715
0.0175401
-0.0065083
0.015023
-0.0151458
0.0613758
0.0200783
0.159862
-0.00307216
0.117168
-0.104186
-0.149689
0.146796
-0.00121151
0.0977016
0.0266452
-0.110067
0.120136
0.000287462
0.0765097
0.0166218
-0.0667453
0.0922995
0.00199742
0.0574803
-0.00897542
-0.0226468
0.0784126
0.00188453
0.0395571
-0.0191614
-0.00837449
0.0651774
0.00227037
0.0257924
-0.0145606
-0.00025623
0.0554102
0.00141556
0.0185675
-0.0106884
0.000480831
0.0460144
0.000992749
0.013163
-0.00606166
0.00130952
0.0406769
0.00148852
0.0120296
-0.00451697
-0.00365711
0.0391706
0.00208976
0.0113194
-0.00454153
-0.00735407
0.0411949
0.00257268
0.01113
-0.00554635
-0.0101723
0.0453594
0.00281683
0.0111068
-0.00657193
-0.011507
0.0505083
0.00293508
0.0112791
-0.00727776
-0.012076
0.055851
0.00296771
0.0116549
-0.00767288
-0.0122832
0.060987
0.00293025
0.0121848
-0.00787996
-0.012362
0.0657449
0.00284858
0.0127826
-0.00798617
-0.0123942
0.070073
0.00275193
0.0133422
-0.00803343
-0.0123806
0.0740164
0.00266092
0.0137512
-0.00804182
-0.0123059
0.0775853
0.00257959
0.0140591
-0.00802642
-0.012174
0.0808179
0.00251131
0.0142701
-0.00799515
-0.0120122
0.0837523
0.00245075
0.0143596
-0.00792544
-0.0118129
0.086417
0.00239526
0.0143802
-0.00782393
-0.0116099
0.0888056
0.0023397
0.0143646
-0.00768377
-0.0114026
0.0908912
0.00228791
0.0143835
-0.00750613
-0.0112439
0.092656
0.00223993
0.0144721
-0.00728142
-0.0111879
0.0939886
0.00220405
0.0147366
-0.00698213
-0.0112827
0.0947321
0.00217655
0.0153232
-0.00655898
-0.0116749
0.0946066
0.00214948
0.0164245
-0.00590291
-0.0125351
0.0931445
0.00210553
0.0182364
-0.00481993
-0.0140482
0.0898637
0.00199229
0.02116
-0.00301503
-0.0168437
0.0958403
0.00156037
0.0232754
-0.00191922
0.0881379
0.00206375
0.0249129
-0.011303
0.0809988
0.0014772
0.0301043
-0.00728761
0.0702755
0.000582111
0.0457783
-0.01454
-0.000980671
0.0530124
-5.50307e-05
0.0379357
0.0709012
0.00669048
-0.000570335
0.0447057
0.0304636
-0.00989057
0.0444234
-0.058473
-0.00708254
-0.0348926
0.107736
-0.04506
-0.054596
0.00679047
-0.0992793
0.0185168
0.02228
-0.111244
-0.0115638
0.019058
-0.123473
-0.00659801
0.0141936
-0.0137762
0.00320043
-0.116117
0.0989386
0.00198304
0.00142939
-0.103807
0.00604875
0.00840106
-0.0267464
-0.106256
0.00273413
0.00506871
-0.00534722
-0.108345
-0.00246115
0.00186724
0.00268865
-0.109315
-0.00602041
-0.00025825
0.00725394
-0.109625
-0.00822286
-0.00139713
0.00993623
-0.109497
-0.00961639
-0.0021011
0.0115946
-0.10912
-0.010552
-0.00252728
0.0127069
-0.108546
-0.0112799
-0.00282436
0.0135344
-0.107822
-0.0119034
-0.00306327
0.014247
-0.10697
-0.0125016
-0.00327763
0.0149314
-0.105957
-0.0131222
-0.00349527
0.0156084
-0.104777
-0.0137795
-0.00372691
0.0163306
-0.103434
-0.0144949
-0.00398644
0.0171415
-0.101892
-0.0152988
-0.00428986
0.0180498
-0.100053
-0.0162244
-0.00465148
0.0190396
-0.0978396
-0.017281
-0.00506941
0.0201398
-0.0951758
-0.0184967
-0.00554682
0.0213822
-0.0919509
-0.019903
-0.00609313
0.0227737
-0.088031
-0.0215509
-0.00672818
0.024362
-0.0832746
-0.0234874
-0.00749044
0.0262248
-0.0774471
-0.0259015
-0.00845154
0.0285299
-0.0702981
-0.029015
-0.00964918
0.0315207
-0.0615324
-0.0329084
-0.0110889
0.0352384
-0.0505102
-0.0367948
-0.0126513
0.0384317
-0.0397325
-0.0365817
-0.0145344
0.040346
-0.0146367
-0.0266756
-0.009859
0.0114457
-0.00432828
-0.00673107
0.00183931
-0.00540863
-0.029896
0.0125057
0.0236023
-0.0518612
0.0268126
0.044949
-0.0481824
0.030739
0.0375631
-0.0444406
-0.0122153
-0.0249581
0.00426852
0.00582776
-0.0295792
0.0117396
-0.0197445
-0.0154631
-0.00149212
-0.0215416
-0.0363362
-0.00595345
-0.0107263
-0.00486183
0.0168695
-0.0184455
-0.00438134
-0.0112388
-0.00448566
-0.022206
-0.00246846
0.00441841
-0.00383812
-0.0176284
-0.00515733
-0.0146032
-0.00246066
-0.00972462
-0.00118323
-0.0037698
0.000137793
-0.000945954
-0.00705052
-0.00186696
-0.000563259
-0.00701517
-0.00190627
-0.00858676
-0.00196495
-0.000978819
0.000240508
-0.00653454
-0.00131468
-0.000996146
-0.00449796
-0.00150193
-0.00202768
-0.00402855
-0.000317365
-0.00170902
-0.00382006
-0.00158193
-0.00342572
-0.00411247
0.000478359
-0.00332739
-0.0055038
-0.00153804
0.00523852
-0.00424175
-0.0032659
-0.0010594
0.00677536
-0.00394505
-0.00165472
-0.0047595
-0.00208566
0.0066402
-0.00551137
-0.00438487
-0.00150442
0.00845859
-0.00563549
-0.0023829
0.0104412
-0.00753655
-0.00343828
0.0119488
-0.00977582
-0.00352006
0.0108312
-0.00266388
0.0273481
-0.0132535
-0.00326515
0.0025
-0.00506273
0.0272431
-0.0208498
-0.00389551
0.0447782
0.0499208
-0.0463744
-0.0210821
0.0774381
-0.0319585
-0.000698244
-0.0186438
0.0908598
0.00521194
0.0284641
0.00280227
0.0331723
-0.00294869
0.0245953
-0.044284
0.0518517
0.00100845
0.0823925
-0.0206369
0.0849386
0.040022
0.036774
0.110531
0.0490277
0.00680323
0.108904
0.029572
0.00781353
0.114363
0.0109197
0.00666883
0.125158
-0.00677358
0.0047384
0.130419
-0.02482
0.00341428
0.132405
-0.0384111
0.000226622
0.132481
-0.0438773
-0.00141391
0.132602
-0.0432646
-0.00254362
0.134032
-0.0395842
-0.00356291
0.136307
-0.0356667
-0.00403334
0.138398
-0.0318227
-0.00407178
0.140181
-0.0286487
-0.00392385
0.141601
-0.0260186
-0.00368685
0.142725
-0.0237792
-0.00342441
0.143598
-0.0218941
-0.00313608
0.144273
-0.0203203
-0.00283635
0.144789
-0.0190067
-0.00253785
0.145178
-0.0178983
-0.00225954
0.145491
-0.016967
-0.00200482
0.145731
-0.0161469
-0.00178072
0.1459
-0.0154093
-0.00157769
0.146036
-0.0147217
-0.00139963
0.146133
-0.0140366
-0.0012427
0.146211
-0.0133166
-0.001105
0.146307