/*--------------------------------*- C++ -*----------------------------------*\
  =========                 |
  \\      /  F ield         | OpenFOAM: The Open Source CFD Toolbox
   \\    /   O peration     | Website:  https://openfoam.org
    \\  /    A nd           | Version:  7
     \\/     M anipulation  |
\*---------------------------------------------------------------------------*/
FoamFile
{
    version     2.0;
    format      ascii;
    class       volScalarField;
    location    "18.8";
    object      p;
}
// * * * * * * * * * * * * * * * * * * * * * * * * * * * * * * * * * * * * * //

dimensions      [1 -1 -2 0 0 0 0];

internalField   nonuniform List<scalar> 
15010
(
-84854.6
-86990.3
-86456.7
-88173.3
-88936.5
-89011.5
-89736.7
-89776.6
-89795
-89742.1
-89770.9
-89716.8
-88996.4
-88928.6
-88181
-86483.7
-86997.6
-84972.2
-87542.7
-87528.4
-88593.3
-88237.5
-88179.4
-88770.3
-89530.6
-89747.7
-90272.8
-90305.1
-90295.7
-90274.2
-90304.1
-90255.8
-89731.2
-89523.9
-88785.1
-88203.5
-88254.3
-88627
-89366.7
-89348.7
-89264.7
-89344.7
-89579.8
-90208.5
-90420.5
-90869.3
-90874.3
-90828.1
-90818.2
-90874.8
-90857.4
-90406.2
-90206.1
-89595.9
-89359.1
-89277.2
-90091.9
-90027.5
-90007.6
-90084.4
-90258
-90408.2
-90914.1
-91096.5
-91475.5
-91458.2
-91383.6
-91381
-91466.1
-91478.2
-91093.3
-90916.9
-90422.4
-90269.6
-91082.7
-90893.9
-90761.2
-90742.9
-90887
-91083.1
-91191.8
-91611.9
-91766.3
-92073.2
-92046.8
-91963.2
-91962.9
-92060.8
-92082.2
-91759.9
-91612.9
-91201.3
-91845.8
-91764.6
-91563.7
-91394.1
-91375.2
-91557.4
-91762.5
-91842.3
-92218.3
-92412.8
-92695.5
-92664
-92579
-92579.3
-92672
-92690.1
-92397.3
-92219
-92815.4
-92465
-92362.1
-92158.5
-91945.1
-91926.2
-92155
-92360.7
-92458.1
-92817.1
-93057.9
-93331.3
-93311
-93238.3
-93238.4
-93316.1
-93325.1
-93046.4
-93705.4
-93391.6
-93015.8
-92858
-92653.3
-92392.1
-92367.9
-92649.8
-92860.4
-93011.7
-93390.5
-93717.2
-94003.4
-94004.4
-93960
-93960.6
-94007.8
-93997.6
-94736.6
-94401.5
-93930.9
-93450.4
-93170.9
-92903.1
-92513.3
-92485.4
-92899.9
-93170.1
-93444.5
-93926.8
-94410.3
-94741.5
-94778.9
-94778.9
-94780.9
-94780.5
-95678.6
-95585.2
-95141.7
-94386.2
-93668.2
-93156.6
-92776.8
-92144.3
-92103.5
-92767.3
-93148.8
-93654.4
-94375.8
-95146.7
-95585.8
-95676
-95730.7
-95736.7
-96820.9
-96725.7
-96571.9
-95919.3
-94742.6
-93624.2
-92709.5
-92299.6
-91356.4
-91306.1
-92283.2
-92679.6
-93589.6
-94719.6
-95917.3
-96570.2
-96729.1
-96802.4
-97995.2
-98022.4
-97902
-97709.2
-96845.9
-95152.4
-93454
-91838.7
-91307.6
-90166.4
-90101
-91264.6
-91783.1
-93391.8
-95117.7
-96829.8
-97719.3
-97920.7
-98993.6
-99715.1
-99734.1
-99004.7
-98939.2
-98044.1
-95707.4
-93531.3
-91178.3
-89697.8
-87650.7
-87563.5
-89630.3
-91114.4
-93467.7
-95670
-98034.8
-98946.9
-100230
-99827.1
-103165
-103148
-99925.5
-100242
-99672.5
-96269.4
-93774.7
-91332.3
-87790.7
-83389.5
-83274.1
-87699.8
-91282.8
-93716
-96238.4
-99675.9
-99893.3
-103803
-108152
-101972
-100685
-101664
-105823
-109872
-108865
-105589
-105499
-108001
-101953
-103723
-99887
-96011.2
-92668.3
-89102.4
-87781.6
-87693
-88994.2
-92566
-95958.3
-94901.7
-99887.4
-99126.8
-106931
-113425
-110961
-110805
-108743
-109706
-105705
-99883.8
-94959.4
-90417.6
-86750.4
-86463.9
-86306.1
-86579.7
-90283.3
-86727.9
-93312.8
-88758.6
-96128.4
-105809
-114096
-118221
-127282
-114691
-114504
-117889
-113823
-113180
-106764
-99100.9
-93358.4
-86917.3
-82965.7
-84617.1
-84568.8
-82854.5
-83381
-84298.2
-79603.7
-84192.6
-91477
-102019
-110898
-116575
-124734
-124565
-127024
-107993
-105322
-116201
-110625
-101858
-105633
-96126
-88865.5
-84398.3
-81585.5
-83514.9
-91501.8
-94097.3
-91327.4
-87646.3
-84317.3
-79717
-77366.2
-71318.6
-71330.7
-77179.1
-75696.8
-72435.6
-71813.9
-77485.3
-84040.7
-93617.5
-103321
-112558
-113407
-95437.9
-89705.5
-91866
-95581.7
-97169.6
-96150.4
-94555
-91657.5
-86304.1
-76363.9
-65780.6
-60204.3
-58740.2
-56666.6
-61126.7
-62625.7
-63173.4
-60972.5
-62329.1
-62550
-62503.4
-62080.2
-61997.4
-61838.3
-61351.4
-60696.3
-59943.2
-59099.4
-58255.3
-57420.7
-56619
-55867.3
-55178.3
-54568.5
-54047.8
-53631.5
-53336.3
-53182.7
-53186.4
-53347
-53657.3
-54174.7
-55019.1
-56495.6
-59390.4
-65569.9
-74372.8
-78982.5
-76432.8
-71057.4
-93559.4
-25779.5
1672.66
14251.7
12377.8
22547.1
29926
30042.6
27657.6
28319.6
15592.8
8565.98
9112.49
22550.7
27451.3
26985.3
27817.6
28236.4
27949.9
28050.5
20567
29823.9
18718
19474.8
18795.5
15673.4
8411.6
13570.2
14585.9
6106.4
7985.83
-1185.43
547.243
-28838.8
-54399.8
-67452.4
-62365.3
-70406.8
-75921.5
-70361.1
-62235.6
-57234.2
-55146.7
-54168.6
-53478
-53074.2
-52839.2
-52776.4
-52812.4
-52988.6
-53295.7
-53723.3
-54252.8
-54876.9
-55580.4
-56350.2
-57172.8
-58038.1
-58930
-59823.1
-60661.3
-61416.4
-61980.1
-62541.1
-63223.1
-63969.5
-64102
-62986.5
-66350
-65580.4
-63682.7
-60866.6
-65897.4
-76487.6
-85750
-104629
-100476
-110751
-115124
-116765
-114514
-112200
-115557
-128597
-123169
-123169
-115286
-112348
-113081
-103125
-93545.4
-84124.1
-91495.6
-91666.1
-86063.5
-79951
-74820
-69566.2
-68503.1
-72657.8
-77685.8
-72002.7
-72382.4
-64223.2
-64388.4
-68237
-69364.4
-74635.7
-82554.6
-72992.2
-79630.4
-84233.2
-86809
-86998.9
-83789.2
-79088.1
-72739.2
-64504.9
-58535.1
-57470.9
-55682.8
-55145.8
-57576.3
-54805.1
-59916.8
-60359.8
-58222.8
-61076
-62684.4
-61912.2
-62737.6
-62376.9
-60231.4
-62467.4
-61843.8
-61355.2
-60773.1
-60103.2
-59356.1
-58534.6
-57686.4
-56837.8
-56000.3
-55209.5
-54470.6
-53794.2
-53196.8
-52705.1
-52334.7
-52100.7
-52023.7
-52110
-52349.2
-52757.7
-53511.6
-55322.8
-59178.5
-65903.8
-74643.5
-72856.1
-70911.3
-75938
-74254.9
-66604.6
-58963.4
-55575.3
-53840.5
-52983.6
-52513.1
-52242.4
-52129.5
-52185.3
-52399.7
-52753
-53223.2
-53801.7
-54463.5
-55194.1
-55983.6
-56815
-57668.8
-58514.3
-59322.8
-60014.6
-60635.1
-61185.4
-61569.3
-61518.4
-62895
-63011.6
-59383.5
-62248.3
-61762.2
-61311.9
-60784.7
-60165.3
-59444.7
-58620.2
-57756.8
-56898.7
-56050.9
-55257.6
-54511.7
-53836.3
-53241.2
-52750.9
-52387.3
-52164.1
-52101.8
-52207
-52471.6
-52918
-53716.7
-55489.3
-59392.7
-66216.5
-75056.2
-74058.2
-73058.6
-70901.2
-69643.2
-90745.1
-56146.2
-63408.3
-24542.9
5464.62
13425.7
251.024
8772.87
21468.8
21565.8
24893.7
28581.2
28597.3
25945.7
26200.2
17343.5
5530.57
13497.5
23088.2
26487.1
27583.1
28676.5
29192.2
28779.5
28116.8
28928.1
29393.8
28921.5
28684.4
28042.9
27986.9
28044.6
28292.7
28303.6
28519.7
27936.2
28920.2
28650.6
29079.7
28216.9
27214.3
27304
27350.4
27360.3
27385
27362.1
28501.2
29397.5
29670.5
30605.4
30328.3
29070
29569.8
22794.9
22621.6
18658.7
-2317.5
-15591.3
10379.3
1277.1
18610.1
20863.4
20703.3
15049.1
9739.56
17991.7
-9857.12
-17850.2
-27312.3
-41397.9
-46706.6
-27698.4
-27538.4
-13607.8
-8792.44
1152.2
-26703.7
-55117.9
-73383.3
-77894.9
-72298
-63822.3
-60052.9
-57633
-56616.3
-56062.8
-55506
-54946.7
-54523.3
-54309.9
-54308.1
-54484.3
-54800.6
-55241.9
-55781.7
-56401.5
-57088.9
-57834
-58623.9
-59445.2
-60282.3
-61117.6
-61937.5
-62734.1
-63518.1
-64374.6
-65150.4
-65679.1
-65318
-65619.4
-60712.1
-60440.6
-64797.4
-65076.4
-57150.3
-60199.1
-62075.7
-61363.3
-62483.4
-62301.3
-62630.9
-61682.1
-61990.5
-61945.4
-61476.2
-60840.6
-60092.8
-59251.4
-58403.8
-57578.9
-56784.6
-56049.5
-55373.4
-54755.4
-54216.2
-53804.7
-53526.3
-53391.4
-53410.5
-53583.6
-53904.8
-54421.4
-55239
-56599.3
-59140.5
-65312.8
-74873.2
-79878.3
-80220.6
-74264.3
-99345.3
-27611.6
2548.61
15198
17243.9
26052.4
25803.8
22970.9
24843.2
28566.9
28633.6
28005
27260.1
27271.5
27266.6
26105.9
26145.2
26173.3
26174.2
26153.2
26101.9
26061.2
27345.6
28580
28607.6
29816.6
30932.2
31826.3
31626.7
31157.5
28014.2
29183.7
23577.4
25452.6
22952.1
24964.9
22891.6
10581.1
-1461.25
-8638.96
-21117.6
-38851.3
-49546.5
-59245.7
-65443.2
-64292.9
-59694.8
-56769.5
-55670.7
-54827.4
-54056.2
-53589.1
-53377.6
-53382.2
-53472
-53660.8
-53972.1
-54404.7
-54931.9
-55547.5
-56236
-56990.5
-57797.7
-58654.5
-59556.9
-60500.8
-61479.5
-62493.3
-63533.6
-64598.2
-65609.6
-66712.2
-67529.7
-73854.7
-73155.2
-72350.6
-70128.7
-78690.4
-91862
-92175.7
-96394.3
-104370
-111132
-106452
-112232
-112708
-116961
-120064
-121922
-121958
-128549
-95778.2
-95399.8
-85086.7
-74601.8
-69408.3
-60442.5
-55728.7
-56433
-58048.2
-58564.6
-58180.2
-56884.1
-57170.8
-56497.6
-51787.8
-55437.9
-52244.6
-55992.7
-53216.4
-52124.8
-56699.5
-53580.4
-58982.7
-59809.8
-60676.7
-62167
-63214.7
-60884.4
-61923.7
-62505.6
-64112.1
-64030.4
-63214.4
-62617.6
-62126.2
-61507.8
-60697.7
-59818.7
-58900.8
-57993.5
-57115.8
-56281.9
-55505.5
-54796.6
-54165.1
-53618.3
-53175.6
-52854.6
-52658.9
-52580.9
-52580.1
-52737
-53110.8
-53733.7
-54483.4
-56088.8
-60716.9
-69022
-75985.3
-72719.2
-61771.1
-76908
-55576.7
-35015.9
-6655.68
-1435.92
10968.5
23249.9
27607.2
29849.3
29752.5
27619.1
28842.1
28621.3
28536.4
28012.5
27968.8
27253.3
26093.4
26097.4
26103.9
24874.5
24893.7
24944.5
24973.5
24967.2
24918.6
24838.4
24768.6
24705.6
26009.1
27313.4
27272.4
28582
29860.7
31074.9
32150.5
32760.7
32817.4
30537.4
29389.4
31332.7
34873.8
37528.7
38714.8
39322.9
39456.9
39158.5
38900.6
38852
39316.4
39158.3
38896.2
38208.7
37182.2
32932.6
24811.2
15561.9
9720.63
-5050.5
-19063.3
-35494.2
-47822.2
-55463.8
-59628.4
-59490.3
-56745.8
-54856.8
-54607.3
-53904.2
-53392.4
-52930.2
-52770.6
-52861.2
-52995.4
-53187.4
-53496.4
-53932.4
-54473.4
-55111
-55829.3
-56620.3
-57471.3
-58380.1
-59349.5
-60387.2
-61519.7
-62746.4
-64103.9
-65624
-67113
-68724.6
-71190.8
-74092.1
-75470.2
-79277.5
-80997.3
-93076.2
-94654.6
-104302
-104606
-104679
-111562
-112629
-113247
-117405
-120366
-116677
-114487
-112111
-95501.6
-91803.1
-82661.8
-73136.7
-68418.6
-62910
-62103.5
-62143.9
-62621.3
-68229.4
-63967.8
-60124.9
-65165.7
-69499.6
-71996.9
-74132.9
-73966.8
-72191.5
-68704.9
-63305
-58391.3
-57175.2
-54574.2
-54323.3
-63009.5
-63197.4
-51169.1
-55135.7
-54241.6
-54380.3
-56981.6
-55482.7
-58172.6
-56293.1
-60593.4
-63634.5
-65860.2
-66386.1
-67706.5
-66900.2
-65706.4
-64627
-63534.8
-62494.6
-61477.6
-60489.2
-59536.3
-58627.4
-57763.6
-56953.2
-56198.6
-55509.3
-54889.9
-54354.2
-53920.6
-53616.7
-53439.9
-53347.7
-53327.5
-53513.2
-54005.6
-54706.3
-55432.1
-56070.2
-58520.6
-63260.3
-66110.1
-61583.1
-49628.6
-39407.8
-34950.4
-13714.4
-4428.29
8840.19
6233.16
16979.8
9565.95
17019.4
28210.4
30374.2
30569
29644.8
29320.9
29223.8
28474.2
28251.1
28252.6
27323.2
27285.5
26126.4
24925.2
24881.1
24870.1
23579
23584.4
23613
23780.7
23825.3
23814.7
23754.7
23547.1
23467.9
23406.4
23359.6
24648.3
25954.6
25899.4
27241.1
28540.2
29833
31095
32247
33173.8
33852.3
34343
34102.9
33964
36405.3
37316.2
38113.1
39133.1
39521.1
39632.8
39244.8
39285.9
38546
38221.3
37340.5
37467.7
37250.5
37493.1
38355.4
36913.9
35515
34122.1
32408.7
31913.5
30682.5
29431.4
28226.3
26953.6
25752
24473.1
23282.8
22022.4
20863
19624.6
18473.1
17253.8
16127.4
14912.4
1812.63
2621.37
3529.46
4490.26
5150.71
5818.33
6806.34
7869.37
8886.07
9583.96
10330.6
11434.9
12557.8
13605.2
14310.3
15036
16039.3
16710.1
17326.4
17965.4
18580.8
19215.2
19815.2
20434
21010.5
21595.1
22128
22681.6
22814.6
22937.6
23432.9
23928.5
23987.8
24026
24031.7
24004.6
23954.6
23467.5
23183.2
23229.7
23257.1
23251.1
23212.1
23155.8
22255.5
22153.7
22017.5
21899
20991.7
20876.9
19870
19653.2
18634.3
18425.4
17398.9
17172.3
16124.6
16000.6
14889
13745.8
13606.8
12573.6
11408.8
10194.9
9015.61
7885.26
6789.13
5694.55
4596.02
4473.07
3506.79
2600.26
1815.7
1814.48
2585.57
3527.6
3448.77
4069.73
4721.41
5701.49
6784.15
7895.25
9012.14
10062.4
10776.4
11520.6
12601.2
13628.9
14316.2
15023
16005.9
16664.7
17272.4
17888
18473.2
19064.3
19237.9
19788.7
20328.3
20454.3
20973.7
21476.7
21522
21548.9
21554.9
21539.9
21507
21010.3
20687.6
20716.3
20740.3
20734.5
20697.9
20658.5
19738.8
19683.6
19522.5
18573.5
18453.7
18239.2
17257.6
17123.1
16065.1
15959.1
14899.9
13738.6
13614.3
12581.6
11404.8
10201.4
9025.72
7890.63
6791.55
5691.62
4597.31
3538.28
3439.41
2575.72
2576.09
1810.15
895.486
1232.28
1818.43
2587.25
2610.23
3518.42
4483.77
5150.53
5819.62
6810.34
7879.07
8900.35
9597.03
10344.4
11419.3
12443.9
13119.6
13816.1
14789.6
15421.3
16005.1
16581
16751.9
17311.7
17849.6
17959.5
18466
18951.9
18971.9
18977.3
18968.7
18489.2
18129.9
18126.3
18120.8
18113.7
17216.2
17150.5
17012.2
16069.8
15940.1
15751.5
14825.9
14712.6
13672.6
12555.9
12418.2
11393.2
10220.7
9056.62
7906.08
6785.33
5673.32
4592.42
4475.27
3537.97
2716.21
2212.7
2734.38
3564.17
3550.21
4557.77
5660.62
6777.67
7922.64
9077.31
10261.1
11407.9
11400.3
12559.4
13725.8
13751.9
14889.1
14930.2
13820.1
13053.6
13622
14166.4
14286.2
14802.1
15287.8
15291.9
14811.2
14432
14428.4
13528
13458
13318.1
12393.4
12279
12475.2
12635.9
11878.7
11234.3
10229.9
10267.2
9182.55
8462.7
9182.6
9039.74
10174.2
11166
11280.7
10177
9055.33
7923.23
7917.77
7799.67
7810.74
6887.02
6247.61
6902.12
6791.47
5705.42
5563.85
5560.9
4555.5
3565.46
2633.05
2626.78
1829.2
1744.92
1746.2
1816.03
1808.68
1806.71
2575.01
3151.64
3762.24
4639.9
4588.98
3699.16
3697.52
3573.8
2673.1
1839.41
3646.42
4637.8
5693.72
6793.7
6798.54
7925.8
9061.1
10191.9
11306.4
11327.5
12422.1
12450.6
11340.7
10212.3
10202.4
9067.09
7929.35
6800.17
5693.78
5692.9
4626.49
3625.46
3612.68
4622.17
4622.72
5693.39
6803.07
7934.03
9073.25
9077.96
10216.1
11345.1
12455.2
13531.3
13472.8
14300.8
14189.9
13650.9
13339.9
12415.8
12435.8
11340.3
10215.6
9078.89
7940.71
7936.92
6806.09
5696.3
4625.06
3619.74
3616.97
3620.24
4631.17
5703.36
6810.52
6815.72
7944.29
9080.57
10212.5
11327.8
11310
12308.9
13086.2
12511.9
11918.9
11276.8
11201.1
10209.2
10204.5
9082
7948.21
6817.59
5715.41
5708.53
4640.46
3638.05
2253.03
2828.29
3664.43
4656.98
4664.06
5732.08
6821.14
7950.05
9072.36
9222.61
8503.42
7853.32
7836.87
6937.65
6282.66
5594.8
4616.81
3724.06
3782.48
3172.74
2706.59
2594.11
2654.69
3591.83
4586.03
5595.36
5700.09
6821.16
7969.75
9128.1
10316.6
11466.8
12616.7
13735.8
14779.1
15490.7
14860.7
13885.4
13192
12517.8
12486.3
11458
10282.5
9114.28
7959.58
6834.02
5716.88
4630.62
4591.9
3579.26
2650.84
1766.87
2236.49
2761.6
3596.73
3572.45
2744.95
2639.47
3554.79
4526.65
5196.73
5867.47
6863.14
7937.18
8962.89
9665.28
8969.46
7938.55
6865.39
5862.08
5746.48
6852.81
7957.94
9098.83
10279.9
11488.3
12668.8
13704.9
14408.9
13723.3
12692.3
11608.4
10863.8
10158.3
10143.5
9088.95
7966.05
6848.52
5759.15
4772.52
4644.06
3577.47
2618.9
1842.65
1839.17
1121.92
1746.43
2222.77
2739.72
3575.09
4597.26
5673.81
6784.02
7893.11
9041.1
10200.8
11364.9
12399.9
13093.4
13834.1
14853.8
15559
16286.5
17291.1
17973
18598.9
19246.3
19859.9
20493.6
21088.5
21700.4
22269.8
22852.2
23388.5
23952.9
24161.6
24733.2
25244.3
25311.9
25415.6
25494.4
25525.7
25531
25510.1
25441.1
25348.1
25290
24786.6
24534.2
24558.1
24620
24704
24735.8
24730.5
24688
24594.5
24520.4
24486.3
23598.7
23401.3
23164.8
22277.3
22109.5
21139
20945.4
19940.4
19726.6
18700.4
18473.6
17441.3
17239.5
16155.1
15037.7
14820
13700.7
12543.8
11411.3
10314.7
10214.3
9049.43
7902.15
6783.65
5671.72
4587.65
3567.62
2638.89
1818.03
1728.7
1088.52
1455.55
1912.95
2674.44
3593
4593.9
5661.18
6772.58
7910.84
9061.17
10211.2
11352.7
12497.9
13581.3
14325.2
15069.1
16085.1
16782.7
17504.9
18523.6
19227.8
19845.6
20489.1
21096.9
21729.2
22318.8
22927.4
23488.6
24087.4
24666.1
25237.8
25393.4
25541.8
26044
26598.1
26725.6
26877.1
27381.8
27805.5
27789.5
27794.7
27819.9
27402.9
27124.8
27123.3
27118.2
27110
26253.6
26159.4
25982.8
25840.9
25740.4
24598
23391.2
22110.3
20951.7
19711.5
17942.3
17304.2
15532.4
14923.1
13196.9
12532.9
11425.2
10201.5
9109.06
7895.87
6818.08
5643.17
4626.47
3551.69
2670.93
1812.22
617.901
869.846
1219.6
1842.53
2653.76
3573.63
4584.66
5658.21
6773.42
7915.11
9069.35
10225.5
11374.8
12502.3
13572
14308
15071.9
16210.5
17259
17975.4
18607.5
19256.1
19953.5
20987.9
21671.8
22278.4
22913.5
23503.3
24118.2
24678.3
25250.8
25432.3
26010.8
26634.4
26819.9
27366.7
27856.9
27936.9
28051.3
28140.1
28606.2
29049.3
29040
29045.2
29064
28627.4
28359.9
28379.1
28373.9
28346.1
28216.7
27144.2
25922.2
24666.9
22772.6
20298.6
17931.9
15561.8
13247
9769.84
8533.02
6310.5
4146.28
2302.35
68.1531
158.26
333.112
631.425
1065.14
1452.9
1919.4
2678.42
3591.79
4599.31
5669.73
6784.03
7924.89
9078.23
10232.1
11380
12511.4
13588.3
14344
15081
16230.8
17273.6
17991.7
18706.7
19752.3
20443.6
21062.6
21759.8
22416.9
23403.7
24042.4
24614
25258.6
25820.6
26476.2
26747.1
27347.6
27967.9
28487.9
29089.1
29286.2
29818
30364.1
30480
30922
31445.8
31570
31603.8
31582.4
31568.6
31590.5
31595.5
31584.1
31606.3
31635.4
31609
31490.8
30972.2
30883.8
30992.5
31058.9
31043.7
30917.4
30701.4
31242.3
31264.6
31259.1
31225.4
30897
31018.3
31025.4
30952.4
30837.9
30332.1
30417.3
30499.7
30517.6
29948.8
29879.8
29783.3
29667.2
29822.1
29902.5
29718.5
29188.8
29319.3
28696.6
28500.1
28614.8
28671.3
28420.2
27874.8
28065
27420.2
27164.8
27257.5
27305.8
26713
26075.1
26099.3
25779.8
25217.5
25462.1
24773.2
24485.8
24620
24608.5
24050.1
23404.1
23403.5
22417.2
21757
22414.9
22411.2
23402.1
23601.9
22938.7
23509.3
24158.3
24762.8
25404.6
25961.2
26589.2
26782
27346.6
27942.9
28081.1
28600.3
29130.4
29217.2
29317.2
29376.3
29816.7
30223.5
30220.4
30225.9
30241.2
29838
29584.7
29603.9
29598.7
29570.2
29408.2
28358.7
27112.4
25871.8
24604
24612.4
22777.3
20283.6
17898
15542.8
13246.8
13156.9
10845.8
8516.46
6296.43
4135.56
2299.22
462.336
703.383
1169.08
1831.3
2638.41
3564.05
4579.26
5656.97
6774.92
7918.66
9075.29
10236.1
11393.3
12544.4
13706
14801
15558.7
16274.6
17294.5
17991.9
18692.7
19737.3
20435.6
21072.2
21712
22289.1
22259.8
22085.6
20946.7
19724.5
18566.7
17289.6
16143.5
14894
13777.7
12561
10837.8
10181.2
9093.58
7886.14
6819.6
5653.12
4642.4
3575.71
2681.24
1823.16
1157.09
605.767
869.582
1223.44
1840.31
2646.36
3571.41
4585.55
5661.71
6778.96
7922.11
9078.07
10237.3
11391
12527.4
13590.2
14318.7
15063
16184.2
17280.7
17997.1
18696.7
19742.9
20430.4
21061.3
21063
20904.3
19729.8
18539.2
17343.1
16144.1
14957.6
13163
12523.7
11402.9
10189.2
9099.86
7892.35
6825.17
5657.57
4645.69
3578.91
2686.2
1826
1158.42
657.618
635.194
1086.55
1217.28
1844.35
2659.89
3580.46
4591.63
5664.99
6780.57
7922.45
9076.98
10233.7
11383.7
12512
13582.2
13609.3
12509.8
11369.5
10219.2
9067.06
7919.99
6785.28
5675.75
4605.1
3591.9
2667.97
1857.76
1219.94
1150.68
655.82
223.693
362.29
657.805
1112.09
1726.99
2229.63
2765.66
3613.98
4610.76
5679.96
6791.32
7924.5
9075.08
10227.8
11362.9
12408.8
13120.3
13849.7
14981.7
16091.5
16809.9
17502.8
18531.6
19276.1
19969.3
20981.8
21719.3
22410.4
23397.1
24042.1
24597.9
25249.3
25817.4
26456
26972.9
27683.4
28006.3
28555.4
29138.5
29599.5
30232.3
30469.1
30920
31487.5
31626.9
31740.8
32169.3
32584.8
32613.2
32573.6
32545.2
32580.1
32585.4
32559.1
32593.7
32640.8
32618.5
32209.5
32102.3
32109.2
32087.4
32047.3
32046.3
32041.7
32033
32065.6
32079.8
32066
31752.5
30721.6
29528.8
27646.4
26995
25175.7
22687.5
20291.7
17870.5
15524.6
13159.9
10875.6
8522.28
6309.12
4126.98
2309.48
861.382
1199.54
1810.53
2608.78
3523.96
4495.27
5174.28
5828.5
6825.18
7896.94
8924.01
9612.3
10343.4
11442.3
12576
13735.4
14857.3
15593.1
16314.6
17433.3
18523.5
19256.7
19965.5
21003
21682.8
22264.8
22933.5
23589.4
24464.8
25191.5
25751.4
26449.4
26988.7
27665.8
28004.3
28602.3
29179.4
29636.5
30268.8
30553.2
31048.1
31603
31801.6
32231.2
32718.5
32782.3
32793.4
33124.8
33427.5
33389.8
33325.8
33431.2
33437.8
33340
33403.2
33444
33152
33031.8
32919.2
32820
32850.6
32844.4
32806
32901.3
33007.5
32553.1
31568.6
30497
29377
27626.7
26979.3
25810.3
24553.8
23385.9
22117.9
20972
19709.3
18572.3
17309.4
16178.1
14929.3
13812.5
12575.9
11467.6
10243.9
9148.47
7944.94
6870.71
5703.63
4682.83
3602.11
2720.03
1851.03
1809.63
2583.39
3458.37
4094.51
4734.52
5726.65
6813.08
7926.07
9047.32
10108.7
10816
11548.2
12646.2
13791.9
14938.2
16053.4
16760.6
17489.7
18518.1
19285.4
19997.2
21003.2
21741.3
22418.5
23378
24091.2
24668
25349.9
25947.8
26634.6
27215.4
27879.1
28430.6
29056.1
29544.1
30208.5
30576.6
31152.8
31716.4
32140.1
32729.7
32944.2
33338.1
33875
33941.3
33986.9
34216.9
34681.7
34497.6
34446.6
34494.7
34842.3
34852.2
34522.4
34441.9
34488.9
34654.4
34230.9
34207.5
33957.8
33909.2
33736.4
34180
34226.1
34466.8
34460.6
34208.1
34174.3
33894.1
33961.6
34211.1
33708.7
33584.5
32412.8
31276.7
30339.1
29266.8
28147.6
27569.2
26958.4
25792.3
24523.1
23356.3
22084.5
20941.7
19673.9
18534.6
17280.4
16162.3
14915.1
13794.9
12562.6
11462.7
10240.8
9136.87
7932.67
6867.24
5701.1
4675.12
3596.92
2728.86
1871.06
155.375
339.457
645.158
1115.63
1745.8
1916
2682.44
3603.75
4606.24
5674.02
6786.05
7924.91
9076.19
10227.2
11370
12516.3
13600
13597.5
12481.2
11359.8
10202.6
9083.41
7908.59
6804.2
5667.78
4627.69
3608.5
2704.43
1906.95
1819.98
1141.72
659.07
345.284
157.048
1735.59
2215.5
2729.19
3561.2
4504.46
5182.05
5843.96
6843.63
7913.65
8943.23
9640.73
10375.8
11485.1
12630
13793.8
14957.8
16020.3
16726.9
17455.3
18481
19264.6
19981.5
20975.2
21716.5
22394.1
23338.2
24049.2
24653.5
25353
26000
26663.1
27279.7
27916
28508
29128
29704.3
30326.5
30847.6
31495.5
31821.9
32361.7
32924.4
33360.2
33946.4
34194.3
34548.7
35130.6
35308
35539.3
36255.5
36395.2
36504
37165.2
37765.2
37768.1
38461.2
38489
37782.5
37558.5
36828.9
36804.5
36979
37581.6
37588.6
36990.3
37101.2
36127
36205.3
36734.2
36716.7
36194.3
35979.5
35860.7
35138.5
35076.5
34980.6
35149.6
35664.3
35666.7
35140.3
35010.1
35146.3
35974.3
35118.1
35603.9
35670.7
34989.5
34982
33793.1
32328.2
31247
30305.9
29315.2
28190.3
27043.5
25843.1
24617.2
23376.1
22140.2
20948.5
19721.7
18513.2
17299.9
16133.8
14932.9
13773.8
12583.3
11433.8
10254
9115.99
7953.7
6841.53
5715.09
4657.85
3617.99
2704.12
1866.91
3180.58
3729.23
4624.6
5602.32
6286.44
6927.73
7854.29
8507.79
9228.18
10318.1
11453.7
12616.8
13787
14888.9
15817.1
16645.4
17455.5
18510.1
19286.8
20020.7
21016.1
21907.5
22668.5
23366.1
24095.7
24731
25414.7
26100.8
26910.6
27629.4
28168.8
28864.2
29386.6
30063.4
30571.1
31227.4
31573.8
32120.9
32759.9
33294.1
33909.2
34197.6
34700.5
35353.8
35856.5
36560.4
36948.3
37336.8
38272.7
38654.2
39232.7
39100.5
38966.9
37790.1
33900.9
32450.2
31825.8
34048.4
33237.9
32750.5
28726.9
25400.8
12171.1
643.223
-14371.3
-29425.7
-43894.3
-51993.2
-54551.2
-54491
-54197.1
-54251.6
-54065.3
-53874.5
-53379.8
-53213.6
-53358.2
-53485
-53672.5
-53980.1
-54410.5
-54940.8
-55556.7
-56251.1
-57014.6
-57842.8
-58734.6
-59702.2
-60766.5
-61987.8
-63343.4
-64945.1
-66938.7
-69156.1
-70080.4
-73684.5
-73241.9
-82001.1
-80369.3
-86051.2
-87222.6
-94327.7
-94493.1
-94850.3
-96594.4
-92684.3
-105015
-106649
-100872
-110997
-115176
-94865.6
-96299.4
-97070.9
-87100
-84455.2
-79801.9
-69614.2
-65227.1
-60286.1
-60742.9
-60840.5
-61302.7
-58157.7
-60528.3
-61351.4
-64921.2
-66009.3
-65854.8
-64578.5
-61983.9
-58869.9
-57016.7
-54648.6
-54129.8
-63102.3
-63201.3
-50806.4
-54636
-54084.4
-54506.8
-56759
-58206.3
-64463.2
-76698.1
-86313.6
-76901
-79139.8
-81385.8
-79545.2
-75754.9
-73924.3
-73690.2
-70028.2
-67077.6
-64898.7
-63185.7
-61772
-60525.8
-59436.9
-58448.4
-57541.2
-56695
-55912.8
-55193
-54549
-53983
-53524.7
-53175.3
-52936.6
-52721.1
-52528.4
-52721.2
-53346.6
-53554.4
-53233.7
-53169.5
-52727.1
-51836.7
-47961.6
-37701.8
-24598.8
-11898.8
2251.03
14634.9
21935.5
32550.2
32493.9
32872.5
31480.8
29569
22528
12773.4
1869.07
-12106.5
-26617
-39620.5
-49094.1
-52448.4
-53328.9
-53482
-53425
-53522.8
-53490.4
-52940.2
-52730.6
-52878.5
-53059.7
-53288.6
-53620.7
-54068.9
-54620.9
-55259.8
-55974
-56753.6
-57595.7
-58500.7
-59483.1
-60565.9
-61812.9
-63207.9
-64897.6
-67107.2
-67044.7
-69560.8
-69609.5
-73295
-82241
-87346.8
-86156.7
-93537.5
-92402
-76135.6
-75027.6
-70196.9
-65797.3
-58380.3
-66656.6
-69470.1
-66418.6
-68913.8
-63139.2
-72911.1
-86755.4
-92049.1
-79357.2
-84036
-87200.6
-74179.5
-74297.5
-72115
-64943.2
-61297.2
-60671.8
-64143.6
-62431.6
-61130.3
-57687.1
-60081.9
-60438.4
-60803.5
-60670.6
-60777.3
-61153.2
-60392.1
-58154.1
-54343.4
-66324.7
-64726
-64848.1
-56260.1
-54232.9
-56598.5
-58547.3
-61821.8
-68782.2
-72403.7
-64658.5
-66008.1
-66123.9
-60763.2
-61150
-60479.6
-58159.5
-57177.5
-58373.1
-58689.1
-58040.7
-55894.4
-56190.8
-54813
-51506
-56900.9
-64247.7
-64802.1
-64623.7
-64733.8
-69030.1
-72709.5
-71768.8
-60706.9
-75529.7
-74546.2
-72685.4
-70545.3
-76309.8
-77718.4
-74967.9
-64105.4
-62388.7
-62391.1
-73584.7
-73654.4
-79299.3
-77008.9
-66081.3
-66179.3
-77132.3
-81718
-81697.6
-82675.5
-85457.2
-92768
-84407.9
-84335.5
-91180.1
-97085.8
-98897.2
-91654.4
-86379.7
-83675.7
-75662.1
-87107.6
-78604.2
-78592.2
-81482.3
-87122.6
-83704
-86343.1
-87662.9
-82670.8
-72466.7
-86080.3
-79832.7
-74715.4
-77508.7
-72370.1
-62431.9
-64008.7
-74251.4
-72667.5
-69370
-69424.4
-72714
-81004.8
-81997.3
-85517.7
-88171.1
-75540.2
-74049.6
-72380.2
-68505.3
-75070.9
-75676.4
-87551.5
-87436.4
-88894.5
-86412.5
-91071.2
-91852
-89652.8
-91154.8
-98823
-95238.4
-98807.3
-91194.8
-80994.4
-76254.9
-70499.2
-84381.6
-79233.9
-85395.6
-92772.8
-91279
-84308.1
-97180.8
-98881.1
-91617.3
-91715.3
-96026.9
-96085.1
-96121.2
-95945.7
-100391
-103162
-104198
-101690
-98773.7
-98673.8
-93220.2
-90141.4
-90084
-91369.6
-94144.5
-93160.6
-90371
-90402.6
-92507.5
-93942.7
-95446.7
-95130.1
-99614.4
-99860.2
-101654
-103332
-102044
-100680
-99921.5
-96043.6
-94909.7
-93713.2
-95986.4
-96085.6
-96101.1
-95114.7
-94066.3
-93039.5
-87843.3
-87806.9
-92995.1
-94016.8
-93648.4
-92428.1
-95063.5
-95472.5
-93988.9
-91521.7
-94952.2
-96055.9
-95922.5
-96023.4
-96106.6
-95134.8
-94913.4
-93611.1
-93660.5
-94891
-95727.8
-95705.9
-95336.3
-95277
-94795.8
-93509
-93388.5
-93265.5
-93216.9
-93348.8
-93576
-93607.2
-93680.4
-93511.7
-93121.6
-92593.4
-92005.9
-92061.1
-92612.6
-93097.6
-93463.6
-93636.6
-93596.2
-94724.5
-94883.5
-95001.9
-94617.1
-94488.9
-94491.7
-94119.4
-94032.3
-94141.3
-93598.5
-93517
-93627.9
-93023
-92983.2
-93024.5
-92429.6
-92424.1
-92400
-91758.7
-91846
-91821.5
-91474.9
-91380.7
-90690.6
-89932.6
-89080.7
-88114.6
-88772.4
-89565.4
-90232.9
-90856.2
-91091.9
-91229
-91198.4
-91435.6
-92060.2
-92685.5
-93324.2
-93991.5
-94703.3
-95468.6
-96290.3
-97180.2
-98185.4
-99252.1
-99970.6
-99935.9
-99564.6
-98646.3
-104200
-103153
-100452
-101713
-98857.7
-99942.5
-99966.3
-98725.1
-99204.6
-99608.6
-101965
-103296
-99709.6
-98269.7
-97298.8
-96406
-95538
-94730.8
-94000
-93335.9
-92708.9
-92102.7
-91510
-90924.8
-90822.4
-91032.4
-91699.4
-92349.5
-92991.8
-93613.1
-94233.4
-94850.1
-95477.1
-96141.2
-96865.9
-97653.8
-98700.4
-90583.4
-90413.4
-89754.8
-89909.3
-89879.9
-90566.2
-90547.3
-91188.5
-91812.9
-92419
-93011.9
-93585.2
-94121.8
-94589.9
-94967.1
-95287.8
-95649.3
-95734.1
-95282.6
-94825.9
-93464.7
-93560.9
-94760.1
-94886.2
-94494.9
-94535.7
-93604.3
-93651.8
-93487.2
-93099.7
-92572
-91983.1
-92059.1
-92605.8
-93085.3
-93441.8
-94156.9
-94039.9
-93526.3
-93654.6
-93045
-92999.1
-92441.1
-92420.9
-91778
-91473
-91354.7
-90667.1
-89924.2
-89068.8
-88084.7
-88755.1
-89564.7
-90230.5
-90854.2
-91104.5
-91241.3
-91858.1
-92364.6
-93004.8
-93633.1
-94260.7
-94883.8
-95513.5
-96172.9
-96891.6
-97675.4
-98148.1
-98187.9
-97240.7
-97154.9
-96275.5
-96366.7
-95513.7
-95460.3
-94701
-94715.4
-93987.4
-93994.1
-93329.5
-93323.8
-92696.1
-92693.6
-92070.2
-92091.4
-91498.2
-91454.2
-91714.9
-91049.4
-90844.7
-90922.5
-90363.2
-90364.5
-90222.2
-90369.4
-89736
-89219
-89215.1
-89127
-89648.6
-89819.8
-89132.8
-89875.9
-89928.5
-90604.6
-90421.1
-89768.3
-89234.8
-89241.1
-89669.4
-90247.3
-90387.8
-89751.3
-89830.6
-107987
-105200
-85039.9
-74499.7
-69306.7
-71372.3
-72316.7
-68889.6
-64644
-56352.4
-56560.5
-55146.4
-52153
-63983.6
-64261.5
-64271.3
-68281.9
-71861.3
-73836.3
-74909
-75555.1
-75349.6
-75258.5
-85303.1
-81825.4
-87884.6
-87479.8
-87286
-88673
-86637
-89199.1
-89463.5
-92906.2
-92724.1
-95401.1
-91901.6
-91193.8
-95618.4
-85877.1
-85415.6
-73185.3
-67345.1
-70220.7
-68235.2
-65736
-70485.9
-71602.5
-73101.6
-85653.2
-80295.5
-80861.6
-74099.7
-66661.5
-64350.1
-68294.8
-64721.8
-63428.5
-55000.5
-64991.3
-67044.7
-60151.4
-65915.6
-70405.1
-72701.5
-73469.5
-74140
-68799.4
-67126.2
-65604.5
-64065
-62686.2
-61442.3
-60296.5
-59248.6
-58273.1
-57361.4
-56511.8
-55725
-55010.7
-54371.7
-53820.7
-53372.6
-53049.3
-52843.9
-52684.1
-52559.4
-52680.6
-53167.1
-53703.7
-54336.8
-54119
-55595.6
-58233
-58500.8
-54373
-46147.5
-33095
-14532.7
-6962.8
9071.33
15878.1
20609.2
17183.7
22506.3
14164
23826.8
30484.4
32476.5
31901.8
30962.6
29807.4
28597.1
28564.5
28477.8
28428.8
27359.4
27334.2
26146.1
26149.3
24949.1
23801
23760.6
23599.3
22289.1
22287.6
22293.1
22304.1
22197.4
22207
22993.3
23679.2
23516.2
22229.5
22214.3
22182
22985.4
23676.1
24840.5
24739.5
24843.8
26035.1
25962.2
26049.2
25923
24703.5
23459.6
22206.7
20946.3
21018.2
20907.2
22246
22175
22118.6
22054.3
22114.8
23315.8
24581.7
24406.1
25177
25969.5
27225.3
28524.7
29807.1
31080.3
32278.6
33398.3
34424.2
35398.4
36218.8
37554.5
38050.9
38998.5
39413.4
39455.1
38636
38976.1
38489.9
37574.1
36915.6
36519.3
35790.4
35965.5
36003
35841.2
35989.6
36546
36759.3
35652.9
34318
32999.2
31680.5
29930.6
27436
25055.8
22704.7
19136.6
17852.1
17269.2
16141.4
14921.6
326.856
620.88
656.288
1122.28
1809.37
2629.83
3544.42
4509.49
4614.92
5692.53
6803.71
7913.65
9063.31
10224.3
11389
12424.3
12449.9
11362.6
10195.8
9052.95
7919.69
6799.75
5702.87
4639.89
3610.33
3588.77
2749.92
2731.25
2648.62
1817.29
1146.76
671.059
357.61
357.078
336.538
39127
38551.5
38019.9
37652.2
30917.7
27260
29020.1
32387.9
29703.3
29414.5
30085.8
29631.1
26289.5
27077.3
24937.5
25271.3
28200.5
30055.3
30276.3
33018
32286.1
26481.6
28905.5
33480
34184.1
32960.1
30713.7
33825
31872
34007.4
34649.9
35493.7
34564.7
33114.7
26695.4
30507.5
32223.7
33378
33273.5
32589.6
30934.1
32833.2
33187.4
33727.5
33324.6
33667.6
33742.3
33984.6
34854.7
35129.5
33885
32854.9
31889.6
30645.2
29428.7
28241
26982.5
25777.9
24499.8
23303.4
22035.5
20868.5
19618.6
18462.1
17234.7
887.426
1246.82
1872.34
2689.11
3625.4
4650.57
5737.47
6864.62
8016.96
9181.01
10347.5
11507.2
12648.6
13715.3
14445.6
13709.4
12634.7
11501.1
10345.3