/*--------------------------------*- C++ -*----------------------------------*\
  =========                 |
  \\      /  F ield         | OpenFOAM: The Open Source CFD Toolbox
   \\    /   O peration     | Website:  https://openfoam.org
    \\  /    A nd           | Version:  7
     \\/     M anipulation  |
\*---------------------------------------------------------------------------*/
FoamFile
{
    version     2.0;
    format      ascii;
    class       volScalarField;
    location    "18.8";
    object      p_rgh;
}
// * * * * * * * * * * * * * * * * * * * * * * * * * * * * * * * * * * * * * //

dimensions      [1 -1 -2 0 0 0 0];

internalField   nonuniform List<scalar> 
15010
(
12860.1
11317.4
11563.3
9761.05
8976.57
8915.55
8244.22
8211.73
8149.84
8214.69
8228.22
8276.42
8941.5
8994.55
9761.88
11543.3
11318.5
12751.3
11060.6
11066.5
10888.2
11130.3
11064.2
10396
9612.96
9400.92
8899.68
8875.66
8872.18
8905.52
8887.89
8929.2
9428.84
9630.36
10390.5
11048.8
11122.6
10865.7
11185.5
11197.7
11229.1
11089.9
10807
10158.7
9944.79
9510.22
9513.27
9552.36
9574.24
9524.45
9535.04
9970.96
10172.4
10801.2
11085.6
11226.3
11573.7
11664.1
11673.4
11573.3
11370.6
11192.9
10672.9
10486.7
10118.4
10143.4
10211.6
10226.4
10147.1
10128.6
10502
10682.1
11189.9
11369.8
11757.9
11964
12105.6
12115.1
11960.1
11749.3
11624.5
11194.6
11036.6
10739.4
10773.4
10851.4
10863.6
10770.9
10743.3
11056
11206.6
11626.4
12197.4
12290.9
12498.4
12672.6
12683
12495.4
12282.1
12192.1
11808.8
11610.9
11337.6
11377.2
11458.6
11469.9
11381.2
11356.4
11640.6
11821.4
12443.9
12801.4
12909.7
13118
13333.1
13343.8
13112.3
12901.1
12796.1
12431.1
12187
11922.5
11951.6
12024
12035
11959.2
11943.1
12213.6
12771.7
13091.3
13469.6
13632.7
13840.3
14101.3
14117.9
13834.9
13620.2
13463
13078.6
12748.2
12469.8
12477.8
12526
12536.6
12488.6
12490.4
12964.1
13296.5
13769.5
14253.7
14536.6
14805.1
15192.3
15213.1
14799.2
14527
14249
13761.5
13273.3
12947.5
12918.3
12927.1
12938
12933.4
13238.2
13329.3
13768.4
14529.8
15251.2
15761.7
16137.4
16762.9
16796.8
16137.6
15759.2
15254.5
14528.4
13750.7
13313.1
13228.9
13188.2
13198.7
13311.2
13391.5
13541.6
14198.7
15386
16506.7
17410.7
17804.6
18730.3
18773.8
17811.6
17430.6
16531.2
15397.9
14188.9
13530.2
13373.3
13320.8
13310.4
13302.4
13397
13592.8
14474
16187.8
17887.5
19473.8
19961.7
21060.3
21118.7
19994.9
19519.6
17940
16212.1
14479.2
13570.6
13365.5
13452.4
12778.4
12774
13456.6
13531.1
14479.4
16849.8
19025.5
21322.4
22699
24641.2
24721.4
22757.2
21377.1
19079.9
16877.2
14478.4
13512.8
13367.7
13759.1
10556.3
10586.9
13671.1
13369.7
14100.9
17509.6
20004.6
22386.9
25663.8
29792
29901.2
25746.8
22428
20054.1
17531.2
14088.5
15088.8
11307.7
6918.08
12394.4
14387.1
14534.1
10360.1
6245.49
7174.74
9306.32
9409.25
7082.11
12425.5
11396.7
15105.5
18988.1
22334.3
25861.7
27239.5
27322.8
25961.6
22427.6
19031.9
21312.7
16316.5
18280.2
10385.5
3815.77
6199.45
6367.07
7313.94
6422.39
10487.2
16328.8
21264.8
25794.1
29474.1
29821.5
29973
29636.3
25919.5
30601.9
24147.7
29944.3
22494.9
12667.8
4248.11
252.369
-8642.54
3257.54
3456.53
595.749
4531.12
4074.91
10563.2
18316.3
24110.7
30423
34372.9
32881.4
32921.9
34476.1
34708.1
34568.3
40400.5
35770.8
28393.4
17695.8
8539.81
2843.69
-5264.31
-5084.36
-8372.74
10692.1
14444.8
3227.31
8822.75
17864
12853.9
22506.3
29847.3
34477.1
37235.7
34582.5
25861.6
23368.2
27368.9
32256.6
35654.6
40296
42462
48266.6
48247.8
42641.2
44715.8
48819.3
49269.1
43625.9
37133.2
27390.7
17664.3
8144.68
6686.75
25610.3
32618.1
30410.8
26740.1
25308.8
26394.9
27977.7
30794.7
35994.6
45907.9
56632.9
62146.3
63762.3
65122.3
59872.3
57278.3
55578.7
56989
54883
53542.3
52320.4
51488.6
50349.6
49316.7
48607.4
48057
47596.4
47220.4
46841.4
46451.1
46027
45552.9
45016.6
44402.1
43700.4
42897.2
41976.1
40916.2
39699.5
38321
36779.5
35004.9
32861.9
30028.4
25704.5
18023.8
7799.49
1980.05
3534.96
8043.25
-15299.7
51995.2
79372.6
92382.9
90277.9
100292
108492
108464
105163
105492
92120.4
84726.6
85942.7
99988.4
104981
104769
105864
106047
105602
105461
98378.7
106531
95565
96056.2
95800.7
93036.9
85692.7
90628.2
91391.8
83122.3
85084.3
76082.7
77434.5
47736.9
22695.2
10583.4
16675.5
9684.56
5286.14
12084.6
21572
27989.1
31467.3
33781.7
35756.6
37406.2
38862
40133.2
41302.1
42332.7
43237
44025.5
44716
45314.8
45836
46291.5
46694.2
47053.8
47385.5
47713.9
48093.9
48553.5
49203.5
49861.2
50406.6
50888.9
51969.8
54214.9
50996.4
53017.9
56183.1
60139.9
55198.7
44470.1
35183.2
16002.5
20756.2
10718.1
6534.82
4905.71
6997.33
9089.57
5040.73
-7948.6
-3128.52
-3116.03
5321.61
8360.52
7020.96
17864.3
27468
37055.7
28382.8
28207.2
35062.7
42431.7
47659
53093.3
54009.3
49228.6
43431.9
49087.2
48878.1
58017.6
57847.3
54270.8
53290
47838.2
39839.7
50779.2
44098.6
39477.6
36901.4
36715.9
39919.6
44608
50968.3
59277.5
65208.5
66495.2
67555.5
68795.3
66181
68252.5
62283.1
60818.2
62089.1
58405.4
55817.6
55457.1
53410.3
52496.5
53658.6
50564.5
50294.5
49714.7
49153.8
48641.2
48184
47789.5
47416.2
47040.7
46652.5
46217.6
45731.2
45182.8
44556.3
43825.4
42974.6
41988.1
40842.7
39527.5
38043.8
36362.3
34288.6
31087.1
25738.2
17332
6851.97
7440.63
9083.74
4567.36
7402.34
16776.4
26015.4
30869.9
33980.5
36147.4
37883.4
39391.7
40727.7
41889.7
42892.7
43758.4
44509.3
45153.9
45716.3
46210.4
46645.9
47039.4
47408.9
47784.3
48191.9
48706.5
49276.6
49893.2
50639.6
51754.5
50364.7
50259.7
54503
50754.5
50357
49738.7
49124.6
48563.5
48081.7
47691.7
47334.7
46969.6
46592.4
46160.4
45681.1
45131.4
44502.3
43769.7
42912
41914.7
40755
39421.3
37912.9
36193.9
34075.5
30912
25513.2
17001.6
6403.42
6068.81
6892.36
8710.55
10125.8
-11665.5
22349
14803.3
53384.1
83479.5
91897.8
78677
87609.4
100636
100727
104141
108591
108544
105128
105157
95700
83558.4
91973.5
102123
105565
106868
108193
108399
107955
106993
108125
108577
109186
108719
109275
109218
109245
109469
109455
108425
106711
107866
108617
109213
109582
109830
109764
109786
109778
109808
109802
109628
109200
109419
108975
107486
105413
105565
98136.6
97597.1
94165.8
73441.2
60669.6
86361.8
77471.6
94307.5
96369
95900.6
90778.1
85322.8
93717.4
66795.3
59239.9
49711.8
36021.4
30757.3
49772.7
49883.2
63345.2
68270
78157.1
51349.5
23903.2
6619.63
3158.99
9993.88
19886.9
25150.3
28960.9
31301.7
33132.2
34934.2
36719.5
38359.6
39787.1
41004.2
42045.9
42950.2
43731.3
44415.2
45019.8
45557
46036.3
46470.3
46871.6
47254.5
47633.9
48021
48420.1
48819.7
49164.8
49638.7
50404.7
52004.2
52895
57968.5
59256.5
54797.1
54524.2
63154.3
59263.1
56419.9
56004.7
53662
52567.9
52206.2
51897.6
50369.2
49221.2
48493.4
47922.6
47455.8
47077
46701.1
46300.8
45868.8
45377.7
44828
44221.4
43537.7
42729.4
41791.3
40712.9
39480.9
38090.6
36538.2
34764.2
32646.4
29926.9
25952
18273.2
7253.61
1037.59
-283.851
4796.06
-21145
50126.8
80225.1
93330.6
95597.1
105012
104982
102004
104087
108575
108672
109237
109751
109765
109759
109887
109888
109888
109879
109869
109856
109831
109773
109683
109700
109546
109286
108826
107760
106863
103246
103945
97599.4
98849.3
96553.6
99110.2
97407.2
85030.4
73704.6
67173.6
55734.2
39040.4
29417.4
20873.5
15887.8
18329.6
24284.3
28591.8
31051.8
33209.5
35248.3
36946.9
38367
39560.3
40666.8
41678.4
42573.6
43354.1
44045
44651.3
45186.8
45657.3
46075.3
46443.4
46764.9
47043.1
47284.4
47487.6
47662.2
47813.6
48022.2
48145.7
48555.5
42212.4
44144.9
46176.7
49653.8
40942.2
27487.4
27829.7
22917.5
14989.4
8801.66
14061
8334.9
8392.95
4370.44
1288.15
-768.28
-793.118
-7894.36
25268.2
26876.6
38596.5
50430.9
56870.7
67017.2
72128.7
71425.2
69732.8
69210.7
69571.4
70835.6
70611.4
70858.9
75282
71069.3
73740.8
69250.7
71382.1
72482.3
67052
69475.1
63208
61361.8
60330.6
57744.6
55546.7
57084.9
55290.6
53591.6
51978.8
50841.4
50429.1
49798.3
49070.7
48474.9
48069.7
47729.7
47425.5
47108.6
46760.7
46368.8
45919.6
45403.5
44811.8
44138.3
43364.6
42474.3
41463.3
40336.8
39129.7
37752.2
36132.6
34223.7
32134.5
29132.8
23082.4
13405.9
5193.05
7328.61
17204.1
1012.81
21607.2
41762.4
69714.5
75587.7
87852.8
100716
105164
108311
108346
106407
107798
108592
108481
109211
109197
109742
109865
109887
109899
109995
109984
109978
109965
109953
109933
109911
109872
109845
109810
109756
109743
109676
109590
109435
109132
108491
107564
104302
102428
103647
106314
108174
108942
109253
109426
109350
109251
109209
109133
109074
108888
108416
107660
104428
97292
89058.5
83907.8
70405.5
57544.3
42239.7
31071.1
24649.2
21769.2
23246
27361.7
30623.3
32218.6
34219.4
35984.4
37663.8
39018.8
40114.2
41166.3
42166.8
43058.8
43832.1
44507.1
45090
45594.8
46028.3
46402.3
46718
46972
47155.6
47241.5
47229.1
47079.9
46761.7
46474.9
46109.9
43458.9
41304.7
40686.3
37956.7
37387.4
25167.8
23699.4
14209.6
13915.7
14685.6
8375.04
7944.18
7859.6
3932.65
991.56
4999.83
7028.07
9184.37
26820.4
30475.2
39735.8
50636.9
55279.8
60738.6
61709.7
61666.6
61023.6
55465.9
60498.6
64988.7
59766.6
55592.5
53133.1
50922.3
51054.4
52820
56323.7
61791.7
66689.6
68153.4
70104.4
71026.3
61937.9
61756.5
74816.6
70100.1
71120.3
70312.7
66991.2
67770.9
64337
65503.9
60429.5
56244
52752
50971.8
48393.4
47970.5
47938.1
47797.5
47673.6
47498.5
47298.4
47066.7
46796.9
46481.4
46119.8
45704.6
45234
44699.1
44096.5
43413.8
42634.2
41731.5
40708.2
39604.7
38427.8
37034.1
35310.3
33340.7
31297.3
29292.1
25451.2
19344
15189.8
18488.4
29261.3
38357.5
41717.1
62096.2
70915.5
83796.8
81854.3
92512.1
85804.4
93612.4
105440
107589
108978
109419
109148
109083
108393
109419
109436
109761
109741
109861
109950
109946
109980
110021
110043
110034
110022
110018
110003
109981
109953
109900
109850
109856
109839
109801
109799
109732
109657
109572
109488
109315
109002
108525
107898
106847
106119
108174
108822
109001
109330
109454
109574
109521
109499
109432
109526
109481
109518
109214
109330
109458
109172
109252
109330
109645
109511
109591
109705
109741
109806
109838
109887
109920
109962
109991
110029
110051
110068
110065
110110
73321.8
86210.8
95190.9
101419
104063
106109
108051
109164
109746
109941
110110
110188
110199
110182
110159
110129
110075
110066
110049
110030
110013
109994
109972
109958
109951
109951
109953
109955
109970
109971
109977
109981
109991
110001
110007
110009
110009
110013
110006
110005
110003
109997
109986
109976
109978
109976
109973
109961
109971
109959
109968
109987
110014
110014
110031
110047
110076
110101
110145
110177
110172
110167
110115
109969
109629
108957
107698
105472
101535
101391
94947.8
85941.5
74126.1
72822.8
85414.6
94955.9
94619.6
98620.7
101767
105476
107742
108999
109658
109981
110081
110168
110198
110187
110157
110110
110034
110007
110031
110032
110015
109970
109971
109989
109995
109981
109972
109963
109989
110010
110015
110009
110007
110024
109992
110000
110020
110020
109985
109959
109980
109979
110011
110040
110010
110009
110068
110051
110090
110020
110075
110179
110172
110161
110107
109946
109589
108914
107674
105524
101622
94950.2
94592.2
85289.6
85319.9
73141.3
48086.6
58098.5
71955.5
85128.8
85333.2
94701.4
101176
103900
105857
107879
109052
109676
109899
110076
110170
110194
110182
110183
110160
110139
110124
110108
110107
110092
110079
110082
110063
110058
110068
110072
110072
110081
110102
110099
110095
110086
110118
110113
110110
110143
110140
110139
110169
110159
110176
110163
110164
110099
109937
109558
108825
107479
105142
101096
101195
94662.3
85892.2
79622.2
86933.7
95195.7
95193
101823
105641
107797
108926
109586
109927
110096
110182
110207
110196
110211
110177
110183
110212
110209
110215
110203
110189
110192
110186
110190
110201
110206
110202
110211
110183
110203
110188
110179
110214
110224
110189
110177
110075
110085
109885
109574
109862
109589
109934
110106
110109
109941
109592
108937
108888
109144
109191
108235
107132
108166
107624
105348
105641
105589
101752
95195.7
85086.1
84957.7
71325.9
72936.2
71973
72410.4
71744
71700.3
85206.5
91450.7
96591.2
101788
101811
95958.9
95553.9
95947.7
85167.3
72861.6
97002.9
102637
105856
107790
108023
109058
109649
109968
110124
110051
110149
110200
110140
109992
109838
109442
108769
107693
105959
106195
102820
96445.7
96760
102872
102279
106012
108042
109116
109689
109701
110002
110148
110207
110216
110197
110202
110225
110242
110222
110208
110160
110061
109846
109446
108771
109126
108050
106018
102288
95875
95845.5
96813.6
102911
105970
107694
108044
109076
109664
109984
110141
110134
110206
110239
110248
110226
110215
110135
109961
109963
109612
108955
107811
105882
106212
102817
96429.4
79378.7
87886.5
97038.4
102666
101846
105381
107647
108909
109612
109897
109609
109223
109178
108203
107169
105689
101860
96005.4
96681.1
91518
86133.2
85248.2
85144.8
95248.6
101794
105624
105682
107833
108963
109628
109974
110147
110217
110233
110221
110207
110229
110251
110253
110265
110225
110155
109988
109604
108867
107522
105185
101147
101870
95244.7
85018.2
72015
79670.9
87012
95246.2
94721
85905.4
85391.8
94773.1
101240
103960
105912
107925
109098
109727
109954
109711
109117
108009
106117
105578
107723
108964
109643
110007
110176
110238
110252
110252
110272
110279
110246
110160
110039
110052
109724
109059
107801
105539
101842
101675
95002.1
85184.2
72035.8
72441.5
55218.5
73519.3
80419
87073.8
95586.2
101545
105484
107686
108952
109633
109971
110113
110167
110176
110177
110144
110095
109987
109984
109991
109993
109983
109971
109957
109944
109917
109923
109928
109934
109942
109952
109960
109971
109987
109999
110010
110016
110023
110026
110027
110025
110022
110019
110016
110017
110015
110013
110010
110005
109997
109988
109980
109966
109966
109953
109943
109944
109931
109932
109931
109961
109978
110006
110010
110037
110005
110054
110118
110120
110179
110200
110188
110110
109984
109645
108969
107720
105494
101717
95610.5
86508.9
73329.7
72768.9
56860.3
65261.2
75011.1
87570.4
95991
101793
105529
107757
109004
109665
109992
110133
110177
110180
110139
110094
110062
110062
110041
110009
109983
109968
109950
109940
109929
109920
109913
109910
109913
109921
109932
109947
109958
109972
109985
110004
110014
110038
110041
110052
110057
110057
110062
110048
110048
110042
110032
110021
110008
109993
109977
109980
109976
109980
109991
110008
110027
110056
110058
110095
110098
110128
110205
110164
110050
109733
109187
107937
106125
102026
96678.5
85377.9
74293.3
39371.3
46777.1
57698.3
74908.9
87433.4
96080.5
101876
105555
107778
109025
109683
110003
110138
110178
110173
110164
110138
110093
110029
109997
109976
109976
109960
109935
109922
109910
109898
109865
109863
109869
109896
109915
109929
109942
109956
109979
109989
110005
110023
110030
110058
110052
110064
110069
110068
110081
110063
110064
110059
110049
110043
110031
110022
110021
110036
110053
110063
110033
109867
109205
109318
106950
99893
81410.7
11012.5
17247.3
24387
36961.3
55760.5
65680
77050.5
87921.1
96054.2
101734
105476
107744
109022
109693
110019
110157
110199
110194
110179
110155
110110
110064
109981
109974
109957
109945
109927
109913
109899
109880
109870
109866
109864
109868
109873
109883
109895
109911
109929
109950
109966
109988
109995
109991
110001
109970
109941
109907
109871
109839
109839
109844
109856
109897
109942
109983
110017
110051
110056
110028
110009
109969
110033
110013
109947
109948
109944
109928
110011
109942
109972
109984
110008
110009
110007
110006
109986
110017
110024
110017
110018
110017
110005
110005
109990
109994
109990
109982
109976
109966
109949
109937
109952
109945
109927
109916
109909
109897
109886
109879
109873
109874
109877
109872
109877
109873
109870
109873
109879
109878
109895
109897
109891
109903
109886
109886
109897
109888
109868
109865
109879
109896
109914
109931
109952
109967
109976
110002
110009
110019
110030
110028
110056
110026
110041
110046
110046
110078
110064
110065
110059
110049
110026
110026
110021
110022
110011
110010
110019
110044
110065
110049
109901
110144
109986
109258
106691
99678.6
81183.8
30812
40874.3
58295.1
74508.6
87052.6
95886.8
101817
105583
107828
109073
109717
110024
110152
110188
110180
110154
110122
110089
110046
110027
109999
109961
109944
109929
109917
109907
109909
109912
109937
109970
110004
110043
110066
110078
110047
109956
109740
109924
109515
108886
107464
105652
101480
96551.5
86323.6
74356.3
57206.4
38269.4
46634.3
59116
75652.1
87894.5
96202.2
101858
105516
107745
109006
109678
110008
110151
110196
110194
110178
110140
110039
109981
109973
109986
109967
109940
109914
109925
109933
109964
109994
110025
110060
110091
110087
110168
110092
109925
109501
108867
107443
105630
101475
96600.9
86426
74659.5
57760.8
39309.3
36800.9
57007.6
58471.2
76166.8
88053.8
96266.6
101927
105590
107804
109047
109703
110023
110159
110199
110195
110197
110207
110174
110045
109742
109100
107911
105775
102248
96379.9
87697.4
75377.2
58667.9
57904.1
38740.6
18121
27639
39532.8
56307.6
74028.8
81683.7
88908.4
96246.1
101818
105548
107793
109050
109711
110029
110161
110202
110200
110194
110153
110118
110097
110069
110033
110001
109941
109898
109874
109879
109873
109863
109856
109854
109853
109856
109863
109873
109886
109901
109920
109937
109958
109969
109982
109978
109960
109932
109901
109798
109712
109629
109561
109576
109582
109578
109652
109743
109834
109941
109940
109858
109782
109703
109676
109672
109687
109758
109826
109903
109829
109880
109940
109961
109946
109980
110009
110052
110107
110158
110179
110061
109425
107092
99521.7
81315.6
46140
59219.9
75794.2
87603.7
95846.1
101753
104355
106435
108219
109268
109820
109985
110156
110230
110232
110182
110128
110094
110090
110066
110029
110010
109985
109953
109915
109900
109883
109872
109857
109848
109843
109845
109847
109856
109867
109880
109895
109911
109931
109949
109958
109955
109950
109928
109875
109800
109695
109593
109407
109290
109213
109304
109312
109233
109312
109431
109624
109622
109445
109308
109318
109311
109290
109423
109595
109397
109511
109692
109810
109948
109935
109943
110004
110004
110023
110025
110075
110116
110152
110167
110197
110197
110202
110127
110023
109681
109185
107953
106130
102103
96561.7
85935.2
74512.4
75269.9
87077.2
95722.1
99481.9
102550
105870
107954
109132
109753
110051
110136
110222
110243
110227
110196
110158
110127
110090
110020
109936
109929
109938
109931
109915
109891
109872
109859
109845
109835
109828
109825
109827
109832
109844
109855
109876
109896
109903
109912
109913
109917
109890
109845
109803
109673
109554
109303
109196
108914
108839
108860
109203
109229
108930
108893
108968
109220
109339
109416
109102
109183
109162
109036
109041
109253
109239
109003
109005
109148
109081
109398
109453
109249
109112
109211
109525
109729
109808
109914
109912
109924
109974
109985
110014
110021
110039
110038
110080
110133
110194
110214
110235
110180
110086
109761
109240
107982
105994
101768
95991.8
85335.8
74775.4
16374.9
26314.9
38097.4
55460.6
74733.8
76112.1
88312.3
96301.7
101925
105618
107833
109069
109719
110033
110165
110203
110198
110196
110206
110171
110048
109736
109123
107886
105827
102096
96667.6
88226.7
76382.3
74498.4
57038.7
39139.3
25395.6
15489.2
74771.5
81715.6
88251.6
95915.9
101658
104181
106383
108185
109269
109839
110000
110186
110262
110270
110249
110210
110162
110134
110098
110066
110041
110007
109964
109945
109926
109901
109878
109862
109845
109831
109819
109811
109807
109806
109810
109816
109828
109830
109850
109868
109867
109870
109834
109835
109803
109659
109624
109517
109196
109183
109036
108855
108765
108828
109041
109908
110022
109353
109116
108946
109178
109328
109886
109816
109101
109075
108901
109054
109648
109683
109200
109002
108990
108870
108946
108778
108896
109373
109346
108806
108695
108897
108852
108711
109119
109362
109319
109139
109093
108961
109148
109394
109664
109762
109892
109922
109976
109992
110012
110006
110016
110044
110106
110162
110205
110220
110219
110158
110019
109701
109111
107937
105867
102011
95970.5
86265.1
73913.6
93275.8
97046.2
102209
105786
107269
108498
109438
109741
110073
110244
110301
110300
110267
110223
110174
110119
110108
110082
110052
110029
110000
109970
109941
109914
109885
109863
109839
109817
109792
109774
109758
109749
109742
109743
109742
109751
109764
109769
109780
109775
109788
109788
109762
109758
109669
109650
109606
109321
109489
109262
109297
109088
108985
108142
105166
104176
103956
106094
105138
104483
101333
99097
87332.2
77036.2
63227.2
49400.9
36215.9
29450.5
28266.8
29715.6
31383.4
32664.6
34137.3
35568.6
37267.5
38616.8
39647.7
40698.3
41696.7
42585.7
43361.7
44045.8
44649.3
45177.4
45638.3
46034.8
46367.2
46622.4
46778.3
46773
46626.6
46224
45414.9
44355
43407.1
40921.4
41484.5
33889.4
35718.2
31102.1
29807.2
23485.2
23323.7
23507.9
22719.7
27323.3
15616.9
13868
20363.3
10474.8
6483.91
27668.4
26243.3
25404.4
36611
39255.2
43927.6
55478.8
59704.9
64827.9
64642.4
64542.7
64822.7
68524.5
66161.4
65219.2
61362.2
60249.6
60370
61631.2
64230.1
67345.5
69442.9
71302.6
72388
62999.5
62906.2
76262.2
71862.1
72443.9
71457.5
68573.1
66884.7
59327.6
45578
34623.3
44066.8
40501.3
37010.4
37699.5
40413.8
41479.5
40932.2
43467.9
45264.5
46266.1
46785.5
46993.2
47025.7
46896
46662.6
46346.5
45968.9
45527.6
45025.8
44451.4
43804.7
43059.2
42216
41274.6
40320.2
39346.9
37981.3
36162
34722.6
33761.6
32490.8
31550.6
31033.1
33503.1
42386.4
54164.6
65602.6
78537.3
89724.4
95891.9
105651
105167
105561
104032
102345
96269.8
87785.6
78135.1
65397.5
52157
40474.3
32370.9
30415.1
30938
32163.5
33553.5
34736.3
36000.8
37745.8
39129.2
40148.2
41137.5
42089.2
42949.8
43705.6
44366.3
44946
45453.6
45897.8
46279.8
46598.2
46837.8
46973.9
46940.6
46751.2
46255.4
45220
45282.7
43937.7
43890.2
41427.2
33648.5
29681.7
30999.8
24707.3
26942.3
43557.1
45963.1
52156.6
56620
65367.4
56996.3
54216
58535.7
56048.9
61963.8
50801.2
35543.5
30402.2
44342.2
39673.7
36513.2
50844.8
50757.9
53014.7
61341.9
65273
66016.5
61911.6
63382.7
64994.8
68994.6
67138.7
66782.6
66655.2
66471.6
66426
66004.7
66744.2
68984.3
72693.5
59761.7
61481.3
61363.2
71091.9
72815
69863.5
67673.8
64399.1
56249.8
52609.7
61555.3
60218.3
60134.3
66442.8
66011.2
66661.5
68983.8
70542.7
69376.4
69083.1
69734.5
72291.8
71996
73351.7
76619.9
70873.1
62973.3
62414
62608.4
62532
57242.4
53433.9
54380.5
66432.2
49466.8
50413
52130
54430.4
47413
45939.5
48568.9
60359.9
62278.2
62273.8
50011.8
49944.9
43100.1
45248.1
57005.8
56904.4
45119.6
39379.6
39406.7
38362.5
35693.9
28279.4
37957.5
38026.3
29877.9
22704.2
20917.2
28237.9
33520.7
36045.5
44756.3
31541.8
40011.6
40015.8
37332.2
31520
36010.4
33549.4
32231.3
38358.8
49414.4
35036.8
42542.6
48815.9
46144.7
52444.1
63382.3
62048.1
50706.9
52398.2
56828.4
56776
52352.8
42673.8
41668.9
38170
35546
49422
50898.1
53737.3
57706.9
49892.6
49303.2
36150.5
36287.1
34840.2
36234
31460.2
30527.9
32675.9
31149
22153.1
25816.8
22162.4
31104.4
42680.3
47462.2
54470.9
37978.5
43159.7
35749.7
28267.3
29771
38046.7
22599.6
20926.6
28268.4
28148.1
22618.7
22588.7
22561
22711.3
18184.9
15452.5
13216.6
15717.2
18674.3
18797.6
24294.9
28571
28618.5
27317
23309.2
24345.6
27092.9
27070.5
23730.5
22266.1
20778.1
21113.8
16622.5
16374.6
14556.7
12854.8
12926.5
14407.1
15078.2
18950.8
20042.4
21234.8
19007.3
17678.7
17672.1
18616.5
19636.7
20401.2
26210.5
26241.5
20438.6
19678.9
21295
23804.4
21171.4
20741
22209.7
25834.4
19988.6
18926.1
19062.9
17735.4
17653.1
18586.7
17604.2
18885.8
18844.4
17639.8
16830.4
16851.9
16017.5
16073.7
16538.4
17819.5
17892.1
19138.7
19179.1
17923.5
16529.1
16506.8
15239.9
14200.9
13376.1
12687.5
12060.8
12004.7
12673.5
13407.4
14258.9
15298
16541.9
15408.8
15259.2
15150.5
14325.8
14443.9
14436.4
13593.8
13685
13588.1
12910.9
12982.7
12868.4
12251.8
12296
12264.7
11637.1
11633.7
11658.3
11079.3
10991.5
11023.1
11378.8
11481.8
10980.2
10570.5
10295.3
10217
9281.86
9696.85
10216.6
10791.3
10534.3
10389.3
10428.9
10183.7
10784
11381.3
11964.9
12518.6
13023.5
13471.1
13855.6
14166.9
14360.7
14497.6
14997.1
15017.5
16664.4
18816.4
13204.3
15453.2
18113.6
15683.9
18579.3
16281
15025.4
15028.2
14532.1
14124.8
12996.9
12879.5
14040.5
14257.4
14034.8
13734.1
13398.6
12993.6
12508.4
11951.3
11354.4
10736.3
10107.9
9470.69
9578.86
9366.04
9919.5
10487
11065.1
11664.3
12265.3
12867
13452.5
13996.1
14473.2
14885.4
15065.7
9818.18
10010.8
9466.22
9273.36
9318.35
9849.69
9854.75
10431.1
11024.4
11637.9
12265.8
12913.6
13595.3
14342.7
15175.5
16060.6
16902.3
16812.7
16055.9
16496.4
17856.6
16569.6
15361.4
15246.5
14426.4
14379
15323
15264.1
14220.6
13392.9
12703
12076.9
12000
12672.6
13412.5
14273.9
13543.3
13667.3
12961.5
12829.9
12219
12268.6
11605
11627.1
11051.9
11372.2
11498.5
10993.3
10569.9
10301.1
10241.8
9292.36
9689.84
10211.4
10783.8
10514.4
10367.1
10970.7
10458.3
11041.4
11632.9
12226
12819.7
13403.5
13950.8
14433.5
14848.9
14386.6
14324.4
14076.3
14182.8
13861.3
13757.9
13408.6
13470.9
13016.1
12998.7
12507.2
12506
11948.1
11950.5
11351.9
11362.3
10762.2
10733.8
10102.8
10156.7
9890.66
9336.23
9546.97
9462.26
8802.21
8817.23
8962.02
8813.32
8227
8740.31
8796.62
8851.59
8316.11
8142.26
8839.94
9316.85
9243.46
9789.6
9993.37
9445.5
8768.54
8707.54
8283.29
8926.02
8783.83
8203.1
8118.02
10688.8
14558.3
38639.2
50528.3
56969.4
54779.1
53827.3
57380.3
62619.2
71830.4
71626.9
73018.1
75971.2
63233.7
62953.2
62959.5
57929.3
54254
51106
50050
49422.2
49607.6
49734.5
38377.2
41832.2
35823.4
36218.8
36433.7
35053.4
36008.8
33325.1
33065.3
29474.8
29654.3
26868.9
30474.9
31334.9
25418.6
36638.5
38295.7
51765.4
58851.8
55884.8
57870.6
60491.6
54462.3
53328.6
51832.5
38072.7
43395.5
42811.7
49560.7
58324.3
60684.5
55418.4
59023.2
60159.6
68935.5
57393.2
55232.7
62205.6
55189.6
49386.4
45832.7
43837.6
41934
46047.9
46472.5
46792.7
47130.5
47301.1
47331
47258.3
47084.5
46836.3
46523.3
46148
45710.2
45201.6
44620.1
43954.9
43193.6
42315.9
41329.3
40303.6
39243.4
37927.9
36224.6
34434.1
32500.3
31366.8
28509
24489.3
22868.8
25696.4
32679.1
44540.3
61922.6
68329.7
83444.8
89788.3
93951.6
91283.4
96524.3
89078.7
99170
106518
108625
108959
109350
109560
109712
109692
109631
109578
109802
109775
109861
109863
109938
109992
109990
109972
109999
110051
110075
110058
110059
110057
110018
110024
110022
110057
110048
110032
110002
110017
109976
109991
109987
109917
109927
109914
109914
109968
110008
110043
110072
110054
110018
109990
109939
109870
109851
109862
109862
109830
109823
109791
109772
109722
109674
109565
109520
109422
109265
109010
108840
108709
109300
109227
109490
109559
109579
109536
109555
109601
109530
109616
109636
109642
109685
109634
109613
109693
109588
109613
109598
109626
109652
109653
109782
109838
109894
109962
110071
110109
110075
110093
110165
23757.5
38183.9
37582.6
57139.8
74755
87639.3
96091.4
101949
101956
105793
107913
109117
109745
110050
110161
110193
110213
110180
110054
109732
109062
107805
105556
101864
96300.2
96117.7
87959.7
88058.8
87475.2
74684.8
57675
38981.1
24453.8
25176.7
24551.8
109540
109360
109358
109544
103005
99844
102150
105324
102669
102117
103114
102716
99723.6
100507
98268.2
98598.1
101261
102987
103076
105222
104899
99431.3
101549
105903
106272
105266
103216
106023
104413
106327
106643
107230
106838
105824
99869.2
104451
107115
108204
109122
108393
106220
108073
108137
108806
108830
108816
108897
108737
108527
108777
109083
109223
109467
109567
109716
109762
109834
109856
109905
109930
109968
109994
110027
110050
110087
46618.8
59183.3
75764.6
87979.3
96258.9
101913
105576
107812
109079
109758
110097
110249
110303
110308
110298
110308
110307
110258
110113
109784
109120
107872
105654
101990
96334
88137.5
76270.3
58522.5
57047.3
107670
108554
102352
107286
109333
109050
109340
109448
109264
109506
109626
109710
109761
109779
109781
109795
109849
109862
109920
109932
109979
109976
110020
110026
110019
110056
110033
110079
110101
110083
110076
110085
110069
110065
110062
110008
109969
109981
109939
109879
109864
109850
109843
109806
109745
109723
109675
109636
109568
109498
109475
109425
109130
109037
109355
109303
109483
109481
109585
109560
109539
109549
109549
109554
109565
109581
109550
109584
109604
109675
109727
109785
109902
109893
30833.9
40939.5
58319.3
74552.4
87130.9
95961.9
101877
105639
107892
109152
109812
110134
110272
110315
110304
110209
110175
110270
110306
110305
110255
110108
109775
109104
107848
105629
101945
96146.3
87420.3
74773.6
58042.5
39630.6
39432.4
73148.5
85350.1
94663
98677.5
94649.2
85327.5
73572.8
72621.2
109561
109622
109806
109818
109836
109884
109907
109942
109965
109998
109983
110011
109997
110006
110031
110053
110075
110090
110090
110111
110125
110103
110097
110104
110105
110126
110063
109971
109883
109973
109993
109985
109855
109633
109591
109535
109471
109550
109429
109374
109442
109413
109381
109499
109501
109571
109536
109513
109512
109518
109533
109549
109588
109624
109646
109653
109652
109687
109698
109722
109770
109714
109686
109691
109707
109716
109748
109815
109770
109751
109747
109711
109744
109788
109828
109455
109434
109408
109381
109351
109367
109374
109357
109309
109376
109405
109409
109414
109407
109400
109427
109447
109463
109507
109527
109515
109550
109590
109559
109539
109500
109516
109475
109435
109437
109405
109453
109460
109490
109513
109482
109465
109464
109476
109488
109506
109520
109531
109543
109583
109624
109634
109642
109677
109704
109738
109703
109664
109675
109687
109709
109728
109803
109881
109955
110080
110154
109545
103200
67848.5
65713.9
77104.2
87957.4
96110.9
101804
105547
107814
109094
109773
110109
110257
110308
110310
110299
110316
110314
110269
110128
109806
109149
107909
105694
102001
96369.5
88365.5
76138.5
74791.7
74067.3
81735.7
88980.3
96331.6
101902
105626
107868
109130
109799
110127
110269
110318
110328
110326
110284
110159
109843
109206
107999
105879
102039
96193.9
88005
87712.9
74829.6
75877.5
87675.9
95918.3
101825
104422
106505
108281
109335
109898
110064
109806
109226
108110
106171
105671
101872
95887.2
87361.9
75488.7
109845
109862
109882
109916
109937
109961
109957
109907
109985
110058
110084
110119
110132
110134
110144
110150
110129
110126
110109
110149
110174
110150
110085
109961
109882
109886
110002
110019
109565
109565
109362
109343
109319
109323
109337
109317
109299
109320
109317
109370
109411
109411
109431
109443
109461
109477
109488
109503
109522
109541
109573
109606
109619
109633
109663
109692
109720
109741
109774
109745
109713