/*--------------------------------*- C++ -*----------------------------------*\
  =========                 |
  \\      /  F ield         | OpenFOAM: The Open Source CFD Toolbox
   \\    /   O peration     | Website:  https://openfoam.org
    \\  /    A nd           | Version:  7
     \\/     M anipulation  |
\*---------------------------------------------------------------------------*/
FoamFile
{
    version     2.0;
    format      ascii;
    class       surfaceScalarField;
    location    "18.8";
    object      phi;
}
// * * * * * * * * * * * * * * * * * * * * * * * * * * * * * * * * * * * * * //

dimensions      [0 3 -1 0 0 0 0];

internalField   nonuniform List<scalar> 
42590
(
-0.0619119
0.000139492
-0.0509416
-0.0604601
0.0488847
-0.010873
-0.0970392
-0.00288682
0.0183898
-0.122553
0.00777522
0.014651
-0.117849
-0.00474226
0.00977016
-0.149712
-0.00411355
0.0048085
-0.108972
3.8391e-05
0.00897418
-0.106169
-0.00213541
0.00574539
-0.0855207
0.00383596
-0.00088579
-0.0461706
0.000252576
-0.00674137
-0.0483418
-0.000308425
-0.0096416
-0.0851193
0.00353099
-0.00514273
-0.105031
-0.00248829
-0.00999677
-0.107479
1.67619e-05
-0.0147333
-0.14768
-0.00407977
-0.0183677
-0.116365
-0.00472814
-0.0485516
-0.121175
0.00774219
0.0612415
-0.0108724
-0.0960844
-0.00283936
-0.0505041
-0.0598213
-9.51653e-05
-0.0674174
0.00613394
-0.0680285
0.00611369
0.00938341
0.00011791
-0.0803444
0.00281387
0.0221651
-0.107101
-0.00272536
0.0158708
-0.122146
0.00588294
0.0144706
-0.111916
-0.00453666
0.0115239
-0.143292
-0.00347788
0.00763743
-0.105894
0.000803413
0.00874543
-0.104584
-0.00269786
0.0035538
-0.0836325
0.00329795
-0.000805325
-0.0431156
0.00129996
-0.00456626
-0.0452835
0.000698158
-0.00947255
-0.0832148
0.00299702
-0.00795259
-0.103506
-0.0030509
-0.0117282
-0.104488
0.000780765
-0.0145241
-0.141446
-0.00344397
-0.0158158
-0.110561
-0.0045166
-0.022041
-0.120795
0.00584098
-0.00941999
-0.106073
-0.00263774
-0.0796343
0.00290885
-0.00011354
0.00583418
-0.0858154
0.000459552
0.00578362
-0.0865579
0.000311176
0.0135724
-0.112395
-0.00249837
0.0112163
-0.123462
0.00366656
0.0123734
-0.109795
-0.00328228
0.0117427
-0.139728
-0.00293905
0.00824484
-0.1034
0.000998675
0.00860073
-0.102315
-0.00262957
0.0031333
-0.0814496
0.00327921
-0.000742747
-0.0408512
0.00160757
-0.00413276
-0.0429001
0.00100234
-0.00932935
-0.0810028
0.0029799
-0.00855268
-0.101299
-0.00298833
-0.0119283
-0.102093
0.00097624
-0.0124426
-0.138023
-0.00291315
-0.0111959
-0.108542
-0.00326986
-0.013485
-0.122146
0.00363521
-0.111358
-0.00237334
-0.00410213
0.00941889
-0.114299
-0.00237609
-0.000114072
-0.0890293
-0.000778972
0.00405044
-0.0897917
-0.000934211
0.00950804
-0.115326
-0.00253031
0.00837325
-0.124571
0.00223923
0.0103484
-0.109187
-0.00258719
0.0111931
-0.137937
-0.00264027
0.00824263
-0.101556
0.00110228
0.00848311
-0.100123
-0.00243722
0.0030761
-0.0793548
0.00330713
-0.000691989
-0.0388324
0.00174545
-0.0040361
-0.040704
0.00114387
-0.00917879
-0.0788623
0.00299776
-0.00853807
-0.0991498
-0.00279543
-0.0113817
-0.100324
0.00107035
-0.0104227
-0.136362
-0.00262492
-0.00837208
-0.108015
-0.00258255
-0.123311
0.00220408
-0.00745798
0.00686841
-0.124055
0.00133298
-0.0032976
-0.115952
-0.00251459
-0.000111466
-0.0907386
-0.00147991
0.00324663
-0.0915143
-0.00163882
0.00754395
-0.116962
-0.00266556
0.00686881
-0.125277
0.00137697
0.00901247
-0.109076
-0.00225834
0.0106279
-0.137004
-0.00255259
0.00810357
-0.100182
0.00114638
0.00836332
-0.0981513
-0.0022356
0.00310654
-0.0774358
0.0033331
-0.000647238
-0.0369107
0.00182858
-0.00402089
-0.0385682
0.00123409
-0.00902792
-0.0768696
0.00301013
-0.0083863
-0.0972015
-0.00259473
-0.0107962
-0.0990204
0.00110261
-0.00908401
-0.135527
-0.00255187
-0.107977
-0.0022599
-0.00607507
0.00826256
-0.10805
-0.002115
-0.00649712
-0.12446
0.000821725
-0.00292492
-0.11691
-0.00261764
-0.000110976
-0.0916906
-0.00186486
0.0028682
-0.0924743
-0.00202235
0.00658524
-0.11792
-0.0027624
0.00607246
-0.125649
0.000880939
0.00821152
-0.109113
-0.00210609
0.0102626
-0.136513
-0.0025467
0.00797715
-0.0990628
0.00116282
0.00823231
-0.0963454
-0.00206495
0.00315208
-0.0756964
0.00333643
-0.000602158
-0.0350513
0.00189146
-0.00401617
-0.0364632
0.0013054
-0.00885274
-0.0750417
0.00300481
-0.00822077
-0.0954246
-0.00241326
-0.0103968
-0.0979487
0.00110085
-0.135101
-0.00256733
-0.00774892
0.0100814
-0.134795
-0.00263921
-0.00562711
-0.108111
-0.00206649
-0.0059599
-0.124583
0.000452579
-0.0027384
-0.117422
-0.00271308
-0.00010897
-0.0921974
-0.00212531
0.0026836
-0.0929845
-0.00228529
0.00604935
-0.118431
-0.00285758
0.0056373
-0.125765
0.000524459
0.00771349
-0.109143
-0.00204936
0.00998016
-0.136183
-0.00260023
0.00783808
-0.0980981
0.00117399
0.00808392
-0.0947029
-0.00189195
0.00319416
-0.0741475
0.00333698
-0.000550741
-0.0332668
0.00195749
-0.00399392
-0.0344046
0.00138136
-0.00862189
-0.0734044
0.00298714
-0.00805016
-0.0937625
-0.00223789
-0.0970084
0.00108489
-0.00975074
0.00782738
-0.0961621
0.00107636
-0.0072769
-0.134568
-0.00270533
-0.00525656
-0.108102
-0.00203212
-0.00547924
-0.124416
5.26199e-05
-0.00257431
-0.117523
-0.00280778
-0.000107872
-0.0922996
-0.00236659
0.0025261
-0.0931088
-0.00251222
0.00558211
-0.118549
-0.00294069
0.00527153
-0.125609
0.000151024
0.00727338
-0.109137
-0.00200994
0.00970212
-0.13596
-0.00265451
0.00766916
-0.0972594
0.00119127
0.00786706
-0.0932159
-0.00168803
0.00321534
-0.0728428
0.00334352
-0.000498556
-0.0316114
0.00205573
-0.00395274
-0.0324399
0.00148667
-0.00832461
-0.0720109
0.00297532
-0.0922425
-0.00202271
-0.00751506
0.00792125
-0.0909155
-0.00173403
-0.00928903
-0.0954608
0.00106905
-0.00665162
-0.134475
-0.00273412
-0.0047149
-0.10805
-0.0019911
-0.00480079
-0.123972
-0.00036034
-0.00233381
-0.117116
-0.00287652
-0.000106957
-0.0918881
-0.00264048
0.00227471
-0.0927041
-0.00278869
0.00489097
-0.118166
-0.0030024
0.00473857
-0.125178
-0.000282065
0.00667157
-0.109117
-0.00195589
0.00927589
-0.135906
-0.00266106
0.00739453
-0.0965879
0.00120726
0.00753591
-0.0919546
-0.00140539
0.00317435
-0.0718564
0.0033722
-0.000448162
-0.0301844
0.00219326
-0.00385335
-0.0306643
0.00162716
-0.0709294
0.0029813
-0.00733148
0.00365866
-0.070274
0.00301679
-0.00704227
-0.0898917
-0.00131676
-0.00855284
-0.0950163
0.00106396
-0.00561543
-0.134726
-0.00268835
-0.00371604
-0.108121
-0.00183035
-0.0034528
-0.12323
-0.00100731
-0.00180127
-0.115842
-0.00292778
-0.000111801
-0.0905
-0.00307929
0.0017268
-0.0913265
-0.00321803
0.00351941
-0.116925
-0.00303504
0.00373539
-0.124473
-0.000923536
0.00564361
-0.109239
-0.00178798
0.00857057
-0.13624
-0.00259609
0.00695755
-0.0961988
0.00122186
0.00701934
-0.0910228
-0.000995851
0.00301968
-0.071285
0.00342576
-0.000404412
-0.0292546
0.00249239
-0.0293289
0.00191552
-0.00326026
0.000372368
-0.0288825
0.00244096
-0.00651106
-0.0701374
0.00311176
-0.00640444
-0.0893108
-0.000689348
-0.00738844
-0.0950948
0.001061
-0.00379372
-0.13584
-0.00248258
-0.00185222
-0.108623
-0.00144116
-0.000787127
-0.122167
-0.00212995
-0.000633846
-0.113078
-0.00291935
-0.00011379
-0.0871819
-0.00383955
0.00052917
-0.0880008
-0.00397012
0.000795825
-0.114195
-0.00299882
0.00184215
-0.123468
-0.00205277
0.003821
-0.10983
-0.00138953
0.00742597
-0.137476
-0.00237067
0.00634975
-0.0963704
0.00124628
0.00624432
-0.0905415
-0.000377648
0.00263742
-0.071206
0.00352609
-0.0292755
0.00302818
-0.000358579
-0.00194416
-0.0308994
0.00392623
-0.0025489
-0.0300276
0.00333389
-0.00536143
-0.0706446
0.00331842
-0.00579791
-0.0890799
0.000204333
-0.00590412
-0.0961267
0.00113713
-0.000749076
-0.139004
-0.00199271
0.00169135
-0.11041
-0.000654214
0.00440582
-0.120822
-0.0040607
0.0015559
-0.107546
-0.00268312
-0.000105441
-0.0804569
-0.00506468
-0.00167376
-0.0812469
-0.00518672
-0.00447204
-0.108672
-0.00272569
-0.00174778
-0.122196
-0.00399798
0.000739172
-0.111725
-0.000592695
0.00592745
-0.140811
-0.00185428
0.00576175
-0.0975221
0.00131633
0.00511
-0.0903998
0.000508874
-0.0717826
0.00374064
6.21283e-05
-0.00336859
-0.0721746
0.00369822
-0.00037554
-0.0362111
0.00574862
-0.000709966
-0.034847
0.00515333
-0.00360562
-0.0710207
0.00327109
-0.00672822
-0.0869375
0.000979526
-0.00437377
-0.100273
0.00179136
0.00386509
-0.14626
-0.000983204
0.00748226
-0.114933
0.000905224
0.0139187
-0.120096
-0.00716372
0.00563135
-0.0970186
-0.00224041
-8.36758e-05
-0.0675984
-0.0071441
-0.0057716
-0.0682949
-0.00726478
-0.014093
-0.0980854
-0.00226603
-0.00761005
-0.121546
-0.00713306
-0.00392177
-0.116419
0.00100483
0.00440454
-0.148318
-0.000820083
0.00673534
-0.101826
0.0019728
-0.0883017
0.00126775
0.00145615
-0.0220544
-0.066385
-0.00131848
-0.01175
-0.0588166
-0.000151886
-0.000398825
-0.0599117
0.0123497
0.010988
-0.0578366
0.0116031
-0.00166648
-0.0578905
-0.000475698
-0.0217735
-0.0652953
-0.00153512
0.000848865
-0.128787
0.00589196
0.00899257
-0.154064
-0.000339857
0.012134
-0.119475
0.00140096
0.0400467
-0.137713
-0.0102957
0.00832924
-0.00201778
-0.0632834
-3.71215e-05
-0.00923482
-0.0499975
-0.00845091
-0.0505368
-0.00934452
-0.04051
-0.06399
-0.00203666
-0.0123073
-0.139476
-0.010273
-0.00908953
-0.121147
0.00151039
-0.000858919
-0.15641
-0.000138334
-0.130911
0.00617215
-0.0179596
0.0139597
-0.13156
0.00464896
0.000904529
0.045392
0.00359124
-0.0678465
0.037097
0.00434227
-0.0493812
0.00884701
-0.0427111
-0.0643191
0.0216972
0.00784511
-0.00132378
-0.00622966
-0.0733742
0.0189563
-0.00234774
-0.00236211
0.0152859
-0.0820922
0.00344945
-0.0614196
0.0674334
-0.0814639
-0.000319448
0.0177999
-0.000374779
0.0167459
-0.00891606
-0.0653627
0.0160678
0.0363626
-0.000956015
-0.0483906
0.00406873
-0.0446089
-0.0422135
0.0176206
-0.0666122
0.00342719
0.0137903
-0.129326
0.00436954
0.0136196
-0.152639
-0.0012529
0.00797353
-0.113193
-0.00063607
-0.00945824
-0.117404
-0.0028764
8.97855e-05
-0.177017
-0.00305621
0.170526
0.00969536
-0.178965
0.172355
-0.00299479
-0.00802856
-0.119025
-0.00272678
-0.0137211
-0.114871
-0.000583334
-0.155094
-0.00107647
-0.0238679
0.0209776
-0.149286
-0.00291708
-0.141398
0.00125901
-0.0218231
0.0322377
-0.15072
-0.00109267
-0.00890314
-0.0945761
-0.000433421
0.00456813
-0.0822466
0.00735746
-0.000175385
-0.0903007
0.013583
0.0792791
-0.0881508
-0.00457473
0.0132725
-0.00360126
0.0172021
0.00226723
-0.0602229
0.00596486
0.0150554
-0.0805874
0.0011883
0.0236291
-0.138938
0.00104005
0.0208441
-0.146803
-0.00304973
0.00779237
-0.0972428
-0.00289695
-0.00071725
-0.099179
-0.00971501
0.000197938
-0.160259
-0.0176723
0.00102269
-0.162123
-0.0176657
-0.00775257
-0.10062
-0.0096284
-0.0987434
-0.00290038
-0.0385913
0.00679661
-0.0614785
-0.00546995
-0.151285
-0.00435044
-0.0364098
0.00476933
-0.117621
-0.00202307
-0.0335045
-0.151647
-0.0019731
-0.019517
-0.106232
-0.00232848
-0.0344175
-0.0872811
0.0199378
-0.00667414
0.0319358
-0.063102
0.00342532
0.0258457
-0.0439834
-1.39072e-05
0.0114791
3.73074e-06
-0.0325179
-0.0312169
-0.0251454
-0.0317819
0.0339272
-0.00647635
0.00317308
-0.0618396
0.0806953
-0.08569
0.0193137
0.0196113
0.00876019
0.00714258
0.0216001
-0.0927744
-0.000651459
0.0320067
-0.148041
-0.00130095
0.038328
-0.14869
-0.00443192
0.00684628
-0.0603769
-0.00538242
-0.00637454
-0.0719163
-0.0140408
0.000349215
-0.142052
-0.0249295
0.00691042
-0.143712
-0.0249703
-0.0728596
-0.0140513
-0.108334
-0.0821012
0.0560988
-0.116584
0.0305745
-0.0175523
-0.0304929
0.0522906
-0.112758
-0.0256226
-0.0510696
-0.0989908
0.00195066
-0.0547801
-0.146443
-0.00148989
-0.0174285
-0.142056
-0.00152385
-0.0341349
-0.0978809
0.0273105
-0.0273305
-0.0692133
-0.00068881
0.00020702
-0.101408
0.0298914
0.0429029
0.0297628
0.027097
-0.0995533
0.0112743
-0.067903
0.0508746
-0.000303479
0.00135744
0.0636071
-0.102376
-0.000724037
0.0341174
-0.067494
0.0176005
-0.0962709
0.0271014
0.104195
-0.13913
0.0545324
-0.00199407
0.0332919
-0.00255172
0.0363477
-0.148888
-0.00220676
0.0053088
-0.0020882
-0.11556
0.0309254
0.106879
-0.0178721
-0.114623
0.0805564
-0.0939145
0.00540145
0.0388845
0.055148
-0.0380578
-0.011623
0.0854074
-0.115017
-0.0329853
-0.0102941
0.115809
-0.104204
-0.0384675
0.00769954
-0.00186237
0.0259125
-0.0474184
-0.0918784
0.0110438
0.0305966
-0.0509639
-0.0970513
0.0525935
-0.110701
0.0146389
-0.00322777
-0.0527294
0.000374801
-0.0149078
-0.0496129
0.0787857
-0.0143484
-0.0502119
0.0798034
-0.0148669
-0.0541169
0.0955268
-0.00346364
-0.151151
-0.000649276
0.0474737
-0.0021595
-0.000943585
-0.120901
-0.0271453
-0.0205904
-0.0204326
-0.0738889
-0.0725603
-0.00113829
-0.04588
-0.085011
-0.132898
-0.00109033
-0.0920787
-0.132713
-0.00226977
-0.0261904
0.038631
0.000472219
-0.104989
0.081264
0.0401524
-0.0990526
-0.0485514
-0.0471865
-0.0840839
-0.00333489
0.080864
0.00565532
-0.00834535
0.0978179
-0.0698239
-0.109386
-0.127414
0.117515
-0.0894249
-0.0954697
0.026037
-0.0489308
-0.00904763
-0.0829018
0.0139732
-0.0155284
-0.0110084
-0.0776936
-0.00166831
0.00883737
-0.012373
-0.0854001
-0.0143163
0.0311124
-0.00908488
-0.102778
-0.0317616
0.0569142
-0.00776897
-0.13608
-0.0531072
0.0931953
-0.00678043
-0.116146
-0.147441
0.130472
-0.00295636
-0.0893552
-0.160481
0.130578
0.00312003
-0.0118675
-0.130882
0.0464396
0.00696306
-0.0819908
0.0756295
-0.0325031
0.027002
-0.054825
-0.0433175
0.0521863
-0.0360255
-0.0866683
0.0122232
0.00326976
0.0163555
-0.093875
0.0200503
-0.0346941
0.0218575
-0.0878741
-0.00078853
-0.0196019
0.0143966
-0.055165
-0.0556461
0.0678081
-0.0448629
-0.0758754
0.00293303
0.00648502
0.0112975
-0.0900834
0.00342337
0.00152288
0.00926712
-0.105313
0.0036549
0.00730743
0.00427277
-0.0956951
0.00722864
-0.0272304
0.0103904
-0.0988971
0.00419609
-0.00848195
0.0074933
-0.10149
-0.00066605
-0.00126702
0.0045311
-0.102777
-0.00419493
0.0029279
0.00255931
-0.103166
-0.00635461
0.00547724
0.00127043
-0.102985
-0.00773804
0.00710137
0.000460353
-0.102435
-0.00867102
0.0081986
-7.44433e-05
-0.101683
-0.00939946
0.00901077
-0.00035983
-0.100772
-0.0100157
0.00969822
-0.000591235
-0.0997199
-0.0105993
0.0103439
-0.000794003
-0.0985119
-0.0111969
0.0109774
-0.000986389
-0.0971523
-0.0118285
0.011659
-0.00118807
-0.0956051
-0.0125219
0.0123984
-0.00142182
-0.0938202
-0.0132969
0.0132259
-0.00171187
-0.0917388
-0.0141831
0.0141685
-0.00206455
-0.0892848
-0.0151881
0.0152177
-0.0024812
-0.0863741
-0.0163331
0.0163879
-0.00296269
-0.0829106
-0.0176396
0.0176921
-0.00351282
-0.0787639
-0.0191481
0.0191581
-0.00415335
-0.0737955
-0.0208923
0.0208545
-0.0049271
-0.0677478
-0.0230268
0.0229112
-0.0059286
-0.0604039
-0.0256867
0.0255704
-0.00722432
-0.051644
-0.0289843
0.0290341
-0.00880675
-0.0411834
-0.0321174
0.0320912
-0.0104319
-0.0315238
-0.0311767
0.0331657
-0.0116471
-0.00744586
-0.0215265
0.00399591
-0.00654631
-0.00297187
-0.00303504
-0.00777639
0.0063391
-0.0353093
0.0173246
0.0294066
-0.014394
-0.056319
0.0278032
0.0461132
-0.0529058
-0.0408935
0.0190395
0.0336301
-0.0680946
-0.0369867
0.00621573
-0.0101245
-0.0248464
-0.0268557
0.00773537
0.00697993
-0.0133653
0.0105551
-0.0196221
-0.00241487
-0.00832045
-0.0148688
-0.0170341
-0.0133277
0.00599199
-0.000985204
-0.0105803
0.00869939
-0.0135062
0.00205838
0.0189458
-0.0152278
-0.00997908
-0.0043214
0.00597419
0.0187578
-0.0057883
0.0317869
-0.0188824
-0.0069317
0.0377936
0.0323893
-0.0172647
-0.0211326
-0.0128332
0.00278916
0.0406619
0.00717422
-0.0287085
-0.00425614
0.0525191
-0.00396192
0.000162717
-0.00522653
0.00110189
-0.0039086
0.00308416
0.00348084
0.00142541
0.00559885
-0.0144139
-0.00275502
0.00408143
0.0051591
-0.00300622
0.00987698
-0.0164355
0.00102959
0.0140282
0.0437526
-0.0386376
-0.0129448
0.0175999
0.0159857
0.00282695
0.00650516
0.0184331
-0.00840847
0.0122507
0.00523963
0.00690287
0.00549052
0.0156402
-0.0267135
0.0142193
0.00550941
-0.00246005
0.00355346
0.0131257
0.0036059
0.00957303
0.00412076
0.0117349
-0.00459755
0.0122712
0.0107632
-0.0098526
-0.0237952
0.0415368
0.0442033
-0.0154811
0.0868004
-0.030214
-0.0123836
0.054877
-0.0080202
0.0814778
0.0553906
0.035768
-0.017243
0.0551011
0.0230589
0.00503254
0.0583921
0.00875716
0.00527589
0.062935
-0.0161628
0.00858465
0.0678437
-0.0362062
0.00977121
0.0722294
-0.0452198
0.00965956
0.0764677
-0.0456892
0.00933715
0.0810045
-0.0417196
0.00820305
0.0853148
-0.0374262
0.00743445
0.0890015
-0.0338032
0.00709548
0.0920285
-0.0307897
0.00687636
0.0945023
-0.0282837
0.00666773
0.0965156
-0.0260778
0.00643063
0.0981402
-0.0241545
0.00620209
0.0994521
-0.0224792
0.00598407
0.100516
-0.0210257
0.00578325
0.101395
-0.0197656
0.00559364
0.102118
-0.0186572
0.00541535
0.102731
-0.0176852
0.00524686
0.103265
-0.0168164
0.00508972
0.10372
-0.0159853
0.00493449
0.104101
-0.015182
0.00478832
0.104409
-0.0143444
0.00464112
0.104645
-0.0133922
0.00449037
0.104812
-0.0122009
0.0043018
0.104955
-0.0105478
0.00405669
0.105235
-0.00816576
0.00369735
0.106371
-0.00487849
0.00308412
0.109533
-0.00106995
0.00211199
0.112532
0.00199284
0.00224593
0.106761
0.00505031
0.00438489
0.090857
0.0132509
0.00608604
0.0309821
0.00717481
0.152759
-0.15716
0.0295592
0.00582635
0.115734
0.0311593
0.00509289
0.0934998
0.0410814
0.00121366
0.0578549
0.0045644
0.0810037
-0.159491
0.00547067
0.102466
-0.180067
-0.001861
0.0262083
-0.0654748
-0.00569406
0.136496
-0.122395
0.0568493
-0.0447391
0.125519
-0.0902276
0.048113
0.0911593
-0.0161705
0.0187793
0.0774466
-0.00986166
0.00926687
0.075217
0.000426896
0.000142256
0.09641
0.00421776
-0.01143
0.0550629
-0.0316559
-0.032589
0.0348381
0.00426971
0.0443437
-0.121734
0.000533675
0.0442695
0.000352408
-0.0225693
-0.033796
-0.043697
-0.0217024
0.0486473
-0.0328494
0.0035835
-0.0531749
0.0800199
0.0264043
-0.0975942
0.0398229
-0.0373698
-0.0463672
0.0913441
-0.102178
-0.000127775
0.0845837
-0.129391
-0.00297199
0.143518
-0.00139131
-0.12982
0.0722794
-0.00179055
-0.110615
-0.0539528
-0.00289585
0.118257
-0.0974005
0.0606832
-0.00413619
-0.0711464
-0.00183642
0.0352123
-0.0692597
0.0147417
-0.0762555
0.0368144
-0.0914402
-0.0770224
0.0583769
0.107221
-0.0935656
0.0550611
0.0380593
0.00548307
-0.0402234
0.0444047
0.0728326
0.045051
0.0207527
-0.00111376
0.00363207
-0.0207447
-0.119143
-0.0277059
0.149541
0.000805007
-0.0270446
-0.0548392
-0.0376489
-0.0556627
-0.0267798
-0.0576532
-0.0422683
0.00510795
0.057166
-0.0360431
-0.0957978
0.108872
-0.0346803
-0.0916632
-0.0793666
0.00209406
-0.104743
-0.00210841
-0.116649
0.0853583
-0.0742264
0.000775321
-0.138679
-0.0672796
-0.00010749
-0.136391
-0.0525215
0.00131093
-0.127685
-0.0258245
0.00159993
-0.124921
0.00443873
0.00164301
-0.127494
0.0330562
0.000639827
-0.133604
0.0632661
-0.000230426
-0.130454
0.0901467
-8.94093e-05
-0.106283
0.103821
0.00249319
-0.0210229
0.0401253
0.00520699
-0.0965911
-0.0430677
0.0825985
0.0360409
0.0670381
-0.0415369
-0.0264111
0.0405498
0.00984479
-0.0972723
0.0463812
-0.00369392
0.028178
-0.0379888
-0.00286025
-0.0196977
-0.0367161
-0.0784082
-0.00329552
0.0215974
0.0221216
-0.0974044
-0.00426217
0.0265429
-0.030683
-0.0381439
-0.0258778
-0.00269293
-0.0465522
0.00860719
0.0102954
-0.00302968
-0.0859241
0.0196124
0.0236597
-0.00389513
-0.0960151
0.0210737
-0.00448371
-0.106962
0.0171323
-0.00465059
-0.103104
0.00794783
-0.00448485
-0.0282386
-0.0402276
-0.0319602
-0.00267158
-0.0367558
0.00556573
0.00568663
-0.0027323
-0.0433177
0.00450564
-0.00349078
0.00555074
-0.0465103
0.00209165
-0.00383344
0.00493818
-0.0479012
0.000757499
-0.00398542
0.00462242
-0.0483137
3.00527e-05
-0.00406994
0.00445575
-0.0481066
-0.000487371
-0.00412368
0.00440697
-0.0474915
-0.00082097
-0.00422287
0.00443144
-0.0466033
-0.00106445
-0.00432247
0.00450112
-0.0455157
-0.00127518
-0.00440863
0.00459828
-0.0442811
-0.00146674
-0.0044958
0.0047298
-0.042896
-0.00166777
-0.00456692
0.00485115
-0.0413547
-0.00187014
-0.00465257
0.0049829
-0.0396455
-0.00209519
-0.00472755
0.00511508
-0.0377244
-0.00234853
-0.00480581
0.00523476
-0.0355596
-0.00262764
-0.00488594
0.00535039
-0.0331051
-0.00293491
-0.00497173
0.00545399
-0.0303231
-0.00325496
-0.00508579
0.00556083
-0.027159
-0.00358443
-0.00524725
0.00566988
-0.0235192
-0.00391415
-0.0054843
0.00576118
-0.0192256
-0.0042475
-0.00583226
0.00578878
-0.0139033
-0.00459785
-0.00634578
0.00562392
-0.00689775
-0.00502219
-0.00706309
0.00508218
0.00314109
-0.00564312
-0.0082783
0.00388473
0.0153162
-0.00529574
-0.00979858
0.00292101
0.0226225
-0.000598138
-0.00865734
0.00195086
0.00779242
0.0155209
-0.0063403
0.00565045
0.00713369
0.000115517
0.00054266
0.00222924
0.00559335
-0.000689966
-0.0278381
0.0249614
-0.00266961
-0.0113392
0.00301668
0.0131798
0.00805253
0.024769
0.0152126
0.0346146
0.0135532
0.0428174
0.0123545
0.0494509
0.0116896
0.0549081
0.0111597
0.0594792
0.0106826
0.0633438
0.0102523
0.0666288
0.00985661
0.0694289
0.00949035
0.0718331
0.00914363
0.0739045
0.00881219
0.0757139
0.0084995
0.0773152
0.00819285
0.078724
0.00790625
0.0799729
0.00763385
0.0810415
0.00736069
0.0818915
0.00710339
0.0824073
0.00686979
0.0823925
0.00663791
0.0814637
0.00644635
0.0789686
0.00619177
0.0741162
0.00568907
0.0653839
0.00476863
0.00350796
-0.00125819
0.0288805
-0.0503803
0.0381353
-0.00526885
0.0266894
-0.00367722
-0.0571335
-0.0329524
0.11736
-0.0489344
-0.044416
0.00347267
-0.0528016
0.000872577
0.00402812
-0.0570532
-0.00234051
0.00276593
-0.0589604
-0.00409852
0.00202721
-0.0595004
-0.00510869
0.00158519
-0.0592564
-0.00571988
0.00135795
-0.0585898
-0.00614505
0.00126063
-0.0576622
-0.00647345
0.00122789
-0.0565479
-0.00675148
0.00123239
-0.0552853
-0.00701925
0.00126436
-0.053872
-0.0072849
0.00130784
-0.052304
-0.00757476
0.00135738
-0.0505417
-0.00789843
0.00141167
-0.0485488
-0.00824929
0.00145406
-0.0462964
-0.00862544
0.00149091
-0.0437249
-0.00904236
0.00150348
-0.0407876
-0.00950093
0.0014826
-0.0374203
-0.0100196
0.00141023
-0.0335337
-0.0106219
0.00125657
-0.0289547
-0.0113657
0.000960233
-0.0233968
-0.0123207
0.000422752
-0.0164847
-0.0136397
-0.000330159
-0.00802548
-0.01555
-0.00118295
0.00336113
-0.0183055
-0.00287642
0.015101
-0.0147018
-0.00569243
0.00403027
0.00460288
0.000128069
0.00507484
-0.000930238
0.00378595
-0.00186793
0.00315674
0.00113922
0.00304625
-0.00040062
0.0142556
0.0105399
-5.97775e-05
-0.0235963
-0.0441151
0.0497625
-0.00220161
0.010807
0.00330118
-0.0586777
0.01126
-0.0726836
0.0720081
0.00397601
-0.0500735
-0.00848351
-0.0141281
-0.0448694
0.0191993
-0.052485
0.0280814
0.0411674
-0.0171335
-0.0326121
-0.0362929
-0.00428703
0.00597341
-0.0343453
0.000324261
0.0273121
0.0024216
0.000336445
-0.0134057
-0.0215675
0.000288326
-0.0131069
0.000743098
-0.0206835
0.033382
-0.0219328
0.0111881
-0.00236388
-0.00343713
0.00419017
-0.0175585
-0.00512869
0.0182674
-0.011606
-0.00366409
-0.00643719
0.006159
0.0163725
-0.0042654
0.0215028
-0.0106048
-0.0047399
0.0516577
0.0157946
-0.0353961
-0.0453
0.0181148
0.0505988
0.028243
-0.0319685
0.038814
-0.0363532
-0.00441245
-0.00307528
-0.00442156
0.00308433
-0.00533507
-0.000106019
0.00425002
0.0033515
0.00516139
-0.0180984
2.59786e-06
0.00916786
0.00348323
-0.00840515
0.0101563
-0.0112268
-0.00486096
0.0272665
0.00367442
-0.0207256
-0.000207075
-0.0139725
0.0393213
0.00233513
-0.000249306
-0.0135261
-0.00355828
-0.00572844
-0.0142704
0.00010654
-0.00086441
-7.13002e-05
-0.00961844
-0.00371667
-0.00281186
-0.0116693
-0.00394531
-0.00261335
-0.00376916
-0.00803819
-0.00430105
0.00950394
-0.000719284
-0.00709802
0.00881467
-0.00662935
-0.00320159
-0.00328711
0.0156598
0.00524361
-0.00522094
-0.00686887
0.0144045
-0.00708233
-0.01482
-0.00100493
-0.00374136
-0.0125606
-0.00718174
-0.00275843
0.012321
-0.00995761
-0.00578597
-0.00130986
0.00212556
0.000385895
-0.00785115
-0.0007277
-0.00389135
-0.0015857
0.00168332
-0.00601365
-0.00292733
-0.00537585
-0.00237738
-0.00508086
-0.00209999
-0.00432891
-0.00534871
0.000557141
0.00674185
0.00884123
-0.00694093
-0.00405706
-0.0021747
0.0114051
-0.0055623
0.00600285
-0.00300635
-0.00741384
0.00888994
-0.00530223
0.0104125
-0.00805108
-0.00619473
-0.00358248
0.0146428
-0.00898629
-0.0052267
0.0147773
-0.0117881
-0.00723143
0.00176261
-0.00425199
0.010399
-0.00377578
-0.00486152
0.0301006
0.0271385
-0.0299067
-0.0169344
-0.00464167
0.00177339
0.0363735
-0.00340694
0.0394513
-0.0141686
-0.0143269
-0.0263437
0.000775212
0.0793453
-0.00388224
0.00363015
-0.0140612
0.00654848
-0.0170924
0.00833735
-0.00758071
0.00393085
0.0296466
-0.0430897
0.0119252
0.0149077
-0.048476
0.017527
0.00956563
-0.011238
-0.00467394
0.0601825
0.0725947
0.0764204
-0.0504167
0.040623
-0.0790393
-0.0111518
0.0156217
0.0448745
0.0232489
0.011794
0.0224618
0.0279341
-0.0733421
0.0115591
0.00783302
-0.00393278
0.00302909
0.0124627
0.00705026
0.0114776
0.00548232
-0.0159725
0.0175401
-0.00650897
0.0150197
-0.0151502
0.0613476
0.0200574
0.159831
-0.00307349
0.117148
-0.10416
-0.149688
0.146767
-0.00121126
0.0976734
0.0266462
-0.110047
0.120112
0.000290182
0.0764797
0.016586
-0.0667036
0.0922766
0.00200109
0.0574943
-0.00898286
-0.0226759
0.0783886
0.00188465
0.0395617
-0.0191649
-0.00839276
0.0651428
0.0022741
0.0257885
-0.0145698
-0.000247444
0.0553614
0.00141992
0.0185628
-0.0106824
0.000481183
0.0459669
0.000995531
0.0131501
-0.00605774
0.00130859
0.0406292
0.00148953
0.0120257
-0.00451287
-0.0036618
0.0391209
0.00208877
0.0113172
-0.0045405
-0.00735357
0.0411442
0.00257097
0.01113
-0.0055482
-0.0101716
0.0453085
0.0028148
0.0111077
-0.00657514
-0.0115069
0.0504588
0.00293278
0.01128
-0.00728161
-0.0120765
0.0558041
0.00296547
0.0116551
-0.00767685
-0.0122841
0.0609433
0.00292832
0.0121841
-0.00788384
-0.0123632
0.0657045
0.00284683
0.0127816
-0.00798987
-0.0123956
0.0700358
0.0027504
0.0133413
-0.00803707
-0.0123822
0.0739823
0.00265946
0.0137502
-0.00804529
-0.0123075
0.0775542
0.00257834
0.014058
-0.00802967
-0.0121756
0.0807898
0.00251012
0.0142686
-0.00799799
-0.0120137
0.083727
0.0024496
0.0143581
-0.00792805
-0.0118143
0.0863945
0.00239402
0.0143788
-0.00782636
-0.0116113
0.0887856
0.00233843
0.0143634
-0.00768614
-0.011404
0.0908737
0.00228656
0.0143824
-0.00750853
-0.0112453
0.0926408
0.00223861
0.0144711
-0.00728379
-0.0111893
0.0939752
0.00220284
0.0147355
-0.0069843
-0.0112843
0.0947204
0.00217548
0.015322
-0.00656126
-0.0116766
0.0945962
0.0021485
0.0164232
-0.00590497
-0.0125371
0.0931353
0.00210495
0.0182346
-0.00482186
-0.0140509
0.0898564
0.00199222
0.0211573
-0.00301659
-0.0168475
0.0958348
0.00156163
0.0232718
-0.00192061
0.0881301
0.00206348
0.0249078
-0.0113073
0.0809902
0.00147733
0.0300984
-0.00729264
0.0702683
0.000582939
0.045772
-0.0145482
-0.000987944
0.0530049
-5.38135e-05
0.0379309
0.0709061
0.00669321
-0.000569702
0.0447002
0.0304569
-0.00988898
0.0444169
-0.0584678
-0.00708386
-0.0348894
0.107722
-0.0450571
-0.0545858
0.00679079
-0.0992639
0.0185077
0.0222834
-0.11123
-0.0115563
0.0190494
-0.123463
-0.00659261
0.0141864
-0.0137695
0.00319671
-0.116097
0.098914
0.00198321
0.00143314
-0.103782
0.00604875
0.00839638
-0.0267541
-0.106229
0.00273555
0.00506583
-0.00534899
-0.108318
-0.00245949
0.00186719
0.00268652
-0.109288
-0.00601929
-0.00025655
0.00725049
-0.109598
-0.00822128
-0.00139677
0.00993266
-0.109469
-0.00961456
-0.00210123
0.011591
-0.109091
-0.01055
-0.00252737
0.0127031
-0.108516
-0.0112778
-0.00282468
0.0135303
-0.107791
-0.0119012
-0.00306336
0.0142427
-0.106938
-0.0124993
-0.00327794
0.0149268
-0.105925
-0.0131197
-0.00349528
0.0156035
-0.104744
-0.013777
-0.00372727
0.0163254
-0.103399
-0.0144922
-0.00398648
0.017136
-0.101855
-0.0152959
-0.00429035
0.0180442
-0.100014
-0.0162212
-0.00465164
0.0190338
-0.097798
-0.0172774
-0.00507006
0.020134
-0.0951317
-0.0184926
-0.00554703
0.0213762
-0.0919041
-0.0198985
-0.00609377
0.0227677
-0.0879826
-0.0215458
-0.00672834
0.0243559
-0.0832253
-0.0234816
-0.00749088
0.0262187
-0.0773988
-0.0258953
-0.00845142
0.0285238
-0.0702519
-0.0290086
-0.00964915
0.0315142
-0.0614896
-0.0329014
-0.0110887
0.0352309
-0.0504734
-0.0367875
-0.0126508
0.0384245
-0.0397035
-0.0365777
-0.0145336
0.040343
-0.0146002
-0.0266773
-0.00987114
0.0114461
-0.00429231
-0.00674485
0.00182547
-0.00538759
-0.029886
0.0125256
0.0236063
-0.0519022
0.0268002
0.0449786
-0.0481542
0.030752
0.0375073
-0.0444369
-0.0122031
-0.0249535
0.00426191
0.0058282
-0.0295734
0.0117404
-0.0197347
-0.0154575
-0.00150246
-0.0215433
-0.0363388
-0.00594911
-0.0107323
-0.00486225
0.0168768
-0.0184464
-0.00438057
-0.0112522
-0.00448609
-0.022196
-0.00246361
0.00441273
-0.0038303
-0.01763
-0.00514931
-0.0146011
-0.00245005
-0.00972493
-0.00118143
-0.00376878
0.000137551
-0.000945309
-0.00705109
-0.00186704
-0.000562804
-0.00701516
-0.00190632
-0.00858775
-0.00196528
-0.000978293
0.000240209
-0.00653521
-0.00131521
-0.000995625
-0.00449821
-0.00150197
-0.0020266
-0.00402873
-0.000317847
-0.00170811
-0.00382041
-0.00158186
-0.00342396
-0.00411297
0.000477536
-0.00332586
-0.00550497
-0.00153791
0.00523928
-0.00424313
-0.00326447
-0.00105923
0.006776
-0.00394308
-0.00165457
-0.00475735
-0.00208533
0.00664012
-0.00551187
-0.00438266
-0.00150407
0.00845775
-0.00563314
-0.00238279
0.0104402
-0.00753381
-0.00343803
0.0119455
-0.00977529
-0.00352092
0.0108304
-0.00266341
0.0273449
-0.0132525
-0.00326319
0.00250095
-0.00506737
0.0272478
-0.0208484
-0.00389935
0.044764
0.0498932
-0.0463451
-0.0210656
0.0774228
-0.0319593
-0.0007026
-0.0186445
0.0908523
0.0052099
0.0284426
0.00279864
0.0331667
-0.00295357
0.024595
-0.0442786
0.0518655
0.000983785
0.0823752
-0.0206344
0.0848795
0.040034
0.0368048
0.110546
0.0489915
0.00681728
0.10892
0.0295525
0.0078395
0.11436
0.0109185
0.00669926
0.12514
-0.00677798
0.00475573
0.13039
-0.0248237
0.00341147
0.132363
-0.0384068
0.000228802
0.132429
-0.0438694
-0.00141309
0.132542
-0.0432547
-0.00254426
0.133967
-0.0395742
-0.00356545
0.136239
-0.0356564
-0.00403683
0.13833
-0.031813
-0.00407591
0.140114
-0.0286398
-0.00392823
0.141538
-0.0260105
-0.00369111
0.142666
-0.023772
-0.00342812
0.143543
-0.0218877
-0.0031394
0.144222
-0.0203146
-0.00283911
0.144743
-0.0190017
-0.00254034
0.145136
-0.0178938
-0.00226162
0.145452
-0.0169629
-0.00200667
0.145695
-0.0161432
-0.00178211
0.145867
-0.0154059
-0.00157892
0.146004
-0.0147186
-0.00140071
0.146103
-0.0140337
-0.00124381
0.146183
-0.0133139
-0.00110607
0.146281
-0.0124988
-0.000986611
0.146482