/*--------------------------------*- C++ -*----------------------------------*\
  =========                 |
  \\      /  F ield         | OpenFOAM: The Open Source CFD Toolbox
   \\    /   O peration     | Website:  https://openfoam.org
    \\  /    A nd           | Version:  7
     \\/     M anipulation  |
\*---------------------------------------------------------------------------*/
FoamFile
{
    version     2.0;
    format      ascii;
    class       volVectorField;
    location    "18.8";
    object      U;
}
// * * * * * * * * * * * * * * * * * * * * * * * * * * * * * * * * * * * * * //

dimensions      [0 1 -1 0 0 0 0];

internalField   nonuniform List<vector> 
15010
(
(-0.145153 -0.22473 -10.4015)
(0.0688232 -0.313733 -10.4963)
(-0.250385 -0.465207 -10.4882)
(-0.565072 -0.406554 -10.1027)
(-0.689795 -0.259309 -9.40663)
(-0.814552 0.192054 -8.7158)
(-0.548876 0.365191 -7.44724)
(-0.284741 0.370321 -6.32824)
(0.0159138 0.240045 -4.29459)
(-0.0483562 -0.351035 -4.49326)
(-0.329629 -0.367506 -6.29437)
(-0.56953 -0.350632 -7.35974)
(-0.812126 -0.183412 -8.58645)
(-0.683435 0.261332 -9.27167)
(-0.561375 0.406063 -9.96984)
(-0.253367 0.459635 -10.3692)
(0.0575442 0.310147 -10.3947)
(-0.157216 0.241428 -10.3087)
(0.0965783 0.395804 -10.69)
(0.104082 -0.370092 -10.7849)
(0.131393 -0.374367 -10.8762)
(0.108001 -0.335092 -10.6086)
(-0.225884 -0.574557 -10.3947)
(-0.497279 -0.406679 -10.0102)
(-0.669246 -0.258036 -9.3436)
(-0.790131 0.18766 -8.64685)
(-0.514775 0.356757 -7.37773)
(-0.255145 0.363314 -6.18906)
(0.0517284 0.237429 -4.08434)
(-0.0187648 -0.341862 -4.28491)
(-0.3006 -0.363347 -6.15308)
(-0.5364 -0.342302 -7.28755)
(-0.788677 -0.179682 -8.5156)
(-0.662875 0.259694 -9.20606)
(-0.493692 0.406472 -9.87427)
(-0.22635 0.566726 -10.27)
(0.0975371 0.329631 -10.5026)
(0.12427 0.400077 -10.7798)
(0.144281 0.411014 -10.8181)
(0.152152 -0.386729 -10.9139)
(0.137036 -0.376677 -10.6556)
(-0.201468 -0.627173 -10.427)
(-0.457067 -0.415567 -9.98397)
(-0.643835 -0.259526 -9.29653)
(-0.765949 0.200462 -8.58158)
(-0.485044 0.358703 -7.2778)
(-0.227634 0.358329 -6.05728)
(0.0715672 0.241 -3.88648)
(0.000361154 -0.338303 -4.08111)
(-0.272568 -0.359961 -6.01661)
(-0.507835 -0.344089 -7.18638)
(-0.765689 -0.192912 -8.44832)
(-0.63815 0.261027 -9.15725)
(-0.454594 0.416058 -9.84595)
(-0.201027 0.618333 -10.2986)
(0.126803 0.367705 -10.5481)
(0.155428 0.395423 -10.5825)
(0.168616 0.414702 -10.8339)
(0.177214 -0.391398 -10.9302)
(0.165567 -0.406663 -10.6918)
(-0.184126 -0.662189 -10.444)
(-0.428257 -0.426724 -9.9783)
(-0.624046 -0.262522 -9.26335)
(-0.745137 0.218393 -8.51102)
(-0.45924 0.363605 -7.17155)
(-0.203186 0.357559 -5.92954)
(0.0840844 0.248347 -3.70957)
(0.0138081 -0.339706 -3.88987)
(-0.247371 -0.360308 -5.88353)
(-0.483272 -0.348996 -7.07977)
(-0.746355 -0.211187 -8.37671)
(-0.619173 0.263623 -9.12283)
(-0.426716 0.427575 -9.83868)
(-0.182892 0.652909 -10.3129)
(-0.164198 0.67382 -10.3219)
(0.186902 0.415678 -10.6133)
(0.200228 0.4178 -10.8579)
(0.20888 -0.396039 -10.9561)
(0.196621 -0.42834 -10.7245)
(-0.165965 -0.6834 -10.455)
(-0.40477 -0.436836 -9.9812)
(-0.610898 -0.264827 -9.24073)
(-0.728781 0.238689 -8.44223)
(-0.438176 0.369495 -7.06208)
(-0.181195 0.359698 -5.80438)
(0.0919133 0.258496 -3.53813)
(0.0228705 -0.345287 -3.7001)
(-0.224975 -0.364316 -5.75286)
(-0.463121 -0.355841 -6.96994)
(-0.73097 -0.232271 -8.30664)
(-0.606336 0.265441 -9.09891)
(-0.403945 0.437784 -9.84023)
(-0.385601 0.446686 -9.84034)
(-0.147871 0.688092 -10.3259)
(0.216296 0.431275 -10.6422)
(0.2314 0.422562 -10.8894)
(0.239902 -0.402027 -10.9892)
(0.225625 -0.444724 -10.755)
(-0.150026 -0.697766 -10.4604)
(-0.385886 -0.445768 -9.98244)
(-0.603703 -0.264958 -9.22034)
(-0.716768 0.261383 -8.37324)
(-0.422123 0.375078 -6.95172)
(-0.160359 0.362578 -5.68366)
(0.09714 0.269832 -3.36851)
(0.0291491 -0.35314 -3.50903)
(-0.203464 -0.369635 -5.62508)
(-0.447214 -0.36241 -6.85709)
(-0.719626 -0.255413 -8.23537)
(-0.599478 0.265223 -9.07705)
(-0.593601 0.264731 -9.05527)
(-0.369766 0.457186 -9.83725)
(-0.132112 0.699985 -10.3225)
(0.245102 0.44518 -10.6644)
(0.263149 0.428118 -10.9179)
(0.271537 -0.4089 -11.0192)
(0.254139 -0.459343 -10.7787)
(-0.134367 -0.709721 -10.458)
(-0.369341 -0.456303 -9.98005)
(-0.596974 -0.265163 -9.19971)
(-0.701944 0.285643 -8.3025)
(-0.40705 0.379523 -6.84141)
(-0.138937 0.366374 -5.57013)
(0.102658 0.282095 -3.20142)
(0.0354649 -0.36124 -3.31746)
(-0.180763 -0.374719 -5.50355)
(-0.433144 -0.366757 -6.74375)
(-0.70622 -0.279411 -8.1629)
(-0.688234 -0.305678 -8.09066)
(-0.586773 0.262823 -9.03535)
(-0.35341 0.468441 -9.83266)
(-0.113693 0.71073 -10.312)
(0.274472 0.458298 -10.6802)
(0.297222 0.433706 -10.9417)
(0.305552 -0.415678 -11.0444)
(0.28317 -0.473148 -10.796)
(-0.116198 -0.720607 -10.4487)
(-0.35229 -0.467612 -9.97602)
(-0.589348 -0.263917 -9.18054)
(-0.682743 0.311912 -8.23113)
(-0.390595 0.381494 -6.73227)
(-0.114516 0.369848 -5.46617)
(0.112034 0.293668 -3.03963)
(0.0448761 -0.368576 -3.12863)
(-0.155168 -0.379457 -5.39251)
(-0.417703 -0.369146 -6.63213)
(-0.397225 -0.368387 -6.52645)
(-0.661112 -0.333963 -8.01972)
(-0.574281 0.258885 -9.01494)
(-0.332184 0.481117 -9.82151)
(-0.0880151 0.721567 -10.2894)
(0.305534 0.471931 -10.681)
(0.335327 0.439091 -10.9494)
(0.343821 -0.422532 -11.0533)
(0.314171 -0.487081 -10.7983)
(-0.0908645 -0.731314 -10.4268)
(-0.330731 -0.480409 -9.96537)
(-0.576285 -0.260513 -9.16048)
(-0.654504 0.340168 -8.1606)
(-0.36919 0.379887 -6.62893)
(-0.085028 0.37195 -5.37826)
(0.130006 0.302267 -2.89273)
(0.0619678 -0.373187 -2.95132)
(-0.1246 -0.382837 -5.29844)
(-0.086496 -0.38345 -5.23156)
(-0.365541 -0.363429 -6.43529)
(-0.61706 -0.363972 -7.9533)
(-0.546439 0.253526 -8.99114)
(-0.297969 0.493209 -9.79645)
(-0.0473686 0.729314 -10.2469)
(0.346233 0.48399 -10.6532)
(0.386816 0.441723 -10.9233)
(0.395413 -0.426933 -11.0283)
(0.354494 -0.499459 -10.7717)
(-0.0500869 -0.739137 -10.3842)
(-0.296188 -0.493073 -9.94036)
(-0.547953 -0.255727 -9.13659)
(-0.609541 0.37003 -8.09403)
(-0.336767 0.373584 -6.53995)
(-0.0478469 0.371525 -5.31633)
(0.163001 0.304965 -2.77824)
(0.093131 -0.372524 -2.80227)
(0.148607 -0.365342 -2.69775)
(-0.037672 -0.382268 -5.20315)
(-0.312641 -0.352781 -6.37049)
(-0.542143 -0.393279 -7.89527)
(-0.486136 0.247956 -8.96247)
(-0.235577 0.505811 -9.75062)
(0.0249415 0.7327 -10.1766)
(0.406289 0.493724 -10.5912)
(0.465477 0.438147 -10.8589)
(0.474414 -0.42627 -10.9649)
(0.414204 -0.509253 -10.7109)
(0.0228322 -0.742957 -10.3131)
(-0.233659 -0.50687 -9.89387)
(-0.487173 -0.250844 -9.10729)
(-0.534116 0.399216 -8.03518)
(-0.283588 0.361045 -6.4773)
(0.000551007 0.369796 -5.2918)
(0.220918 0.299637 -2.71325)
(0.308278 0.292453 -2.71932)
(0.23532 -0.357685 -2.65958)
(0.0247065 -0.385944 -5.21931)
(-0.226114 -0.333751 -6.34445)
(-0.420443 -0.415445 -7.85848)
(-0.372692 0.244484 -8.94068)
(-0.124053 0.519725 -9.69039)
(0.14834 0.738271 -10.0805)
(0.487456 0.504801 -10.4885)
(0.581406 0.427824 -10.7607)
(0.590694 -0.419939 -10.8678)
(0.494254 -0.520508 -10.6087)
(0.146708 -0.7501 -10.2157)
(-0.121996 -0.522468 -9.83217)
(-0.372819 -0.248267 -9.08439)
(-0.412059 0.421353 -7.99656)
(-0.196542 0.339506 -6.45438)
(0.0633556 0.374525 -5.31191)
(0.140447 0.397682 -5.3593)
(0.429587 0.289953 -2.89384)
(0.360435 -0.354905 -2.78931)
(0.100802 -0.404695 -5.26699)
(-0.100229 -0.3107 -6.3572)
(-0.244966 -0.430914 -7.86117)
(-0.186734 0.241252 -8.9446)
(0.0603919 0.522086 -9.64179)
(0.344162 0.748799 -9.99418)
(0.619084 0.517688 -10.344)
(0.751618 0.415493 -10.5897)
(0.761069 -0.413407 -10.6979)
(0.624982 -0.534115 -10.4635)
(0.343349 -0.763044 -10.1288)
(0.0625209 -0.527441 -9.78276)
(-0.186005 -0.246213 -9.08744)
(-0.236465 0.435902 -7.99788)
(-0.0704632 0.315252 -6.46588)
(0.0810263 0.310906 -6.4708)
(0.227353 0.405355 -5.41297)
(0.652433 0.229329 -3.51725)
(0.588337 -0.290379 -3.3835)
(0.189259 -0.408375 -5.32846)
(0.0534726 -0.304649 -6.36629)
(-0.0177612 -0.449849 -7.91349)
(0.0652648 0.229641 -8.95535)
(0.309895 0.506456 -9.63855)
(0.639831 0.721875 -10.0043)
(0.895511 0.479093 -10.1842)
(1.07871 0.362921 -10.2783)
(1.08798 -0.368738 -10.3874)
(0.901288 -0.496066 -10.3019)
(0.639505 -0.738726 -10.1396)
(0.311229 -0.51427 -9.78021)
(0.0663852 -0.23573 -9.09793)
(-0.00982711 0.454678 -8.04979)
(0.2469 0.469903 -8.09092)
(0.516281 0.647005 -6.78962)
(0.361902 0.734243 -4.80754)
(0.281142 0.334963 -6.13228)
(0.350353 -0.485113 -7.03101)
(0.862377 -0.534677 -7.25703)
(0.906376 0.613818 -7.08681)
(0.988034 0.767555 -5.33059)
(1.55615 0.0244532 -4.59004)
(1.10536 -0.0318261 -4.09665)
(1.03997 -0.0221403 -3.96911)
(0.318114 -0.713233 -4.70563)
(0.254728 -0.323471 -6.03163)
(0.49802 -0.635844 -6.66421)
(0.242017 -0.464501 -7.95437)
(0.382131 0.208194 -8.92542)
(0.581817 0.487057 -9.60032)
(0.980415 0.546281 -9.98531)
(1.69393 0.233811 -10.1876)
(1.70043 -0.255995 -10.2994)
(0.979448 -0.5652 -10.1201)
(0.581228 -0.497368 -9.74136)
(0.382702 -0.214906 -9.06747)
(0.79022 -0.245371 -9.03944)
(0.685711 0.343909 -8.24951)
(1.29403 0.223428 -8.30532)
(1.54048 0.583996 -7.30316)
(1.72983 0.77883 -5.69994)
(2.07318 0.0994109 -4.95909)
(2.0092 -0.115924 -4.83097)
(1.48879 -0.0646603 -4.46098)
(0.943985 -0.743328 -5.22599)
(0.88804 -0.599912 -6.95851)
(0.682833 -0.339742 -8.11035)
(0.789467 0.236101 -8.89684)
(0.966789 0.465203 -9.45486)
(1.36075 0.450838 -9.69393)
(1.98232 0.186129 -10.0137)
(1.9858 -0.217955 -10.1211)
(1.35872 -0.473949 -9.82695)
(0.965501 -0.480001 -9.5948)
(1.47914 -0.496682 -9.34128)
(1.34088 -0.287205 -8.99223)
(2.0244 -0.23474 -8.77881)
(2.00737 0.119095 -8.18304)
(2.36312 0.538958 -7.37775)
(2.67366 0.903121 -5.88862)
(3.06496 0.492453 -5.43013)
(3.59286 0.983181 -4.17291)
(2.72292 0.287854 -5.33884)
(2.66316 -0.277349 -5.21106)
(3.01788 -0.471291 -5.31851)
(2.63268 -0.862042 -5.78011)
(1.68744 -0.747179 -5.5949)
(1.52292 -0.565309 -7.16916)
(1.29329 -0.222011 -8.16215)
(1.34094 0.27399 -8.84602)
(1.48027 0.476602 -9.20179)
(1.83307 0.412592 -9.33346)
(2.28997 0.207798 -9.83044)
(2.29302 -0.258769 -9.93967)
(1.83338 -0.438976 -9.4689)
(2.33783 -0.57282 -9.11498)
(2.42672 -0.58038 -8.85823)
(2.94304 -0.467095 -8.52269)
(2.77665 -0.263333 -8.28046)
(2.87424 0.00804967 -7.83211)
(3.29834 0.422715 -7.23551)
(3.72495 0.754339 -5.8283)
(3.81555 0.566361 -5.5504)
(4.63844 0.715473 -4.35253)
(4.57192 -0.654286 -4.23974)
(3.51395 -0.973658 -4.05107)
(3.04378 0.422552 -6.64018)
(4.14768 0.408275 -6.46269)
(3.76934 -0.525294 -5.43225)
(3.68605 -0.69807 -5.71409)
(3.28803 -0.398254 -7.08291)
(2.34802 -0.515816 -7.23614)
(2.00785 -0.121232 -8.03492)
(2.02418 0.218095 -8.6289)
(2.43621 0.552333 -8.71192)
(2.63555 0.40674 -9.00145)
(2.34251 0.538735 -8.97433)
(1.62545 0.144351 -9.25285)
(1.92931 0.0880098 -8.5777)
(2.37258 -0.010764 -8.39013)
(2.96835 -0.0523107 -8.08158)
(2.78039 0.237416 -8.12674)
(2.9569 0.431285 -8.37032)
(3.06444 0.269674 -8.6832)
(3.10241 0.194346 -8.76436)
(3.099 -0.288003 -8.88262)
(3.05619 -0.336047 -8.8144)
(3.77772 -0.0999095 -8.51159)
(3.86931 -0.103516 -8.26361)
(3.48069 -0.309061 -7.89262)
(3.44585 -0.267381 -7.69987)
(3.74877 -0.0759649 -7.23389)
(4.2268 0.3422 -6.56335)
(5.00757 0.539219 -5.61313)
(5.5845 0.808114 -4.09391)
(4.80861 0.459558 -5.46243)
(5.03045 -0.611472 -5.90646)
(6.29184 -0.868123 -4.93446)
(5.86179 0.394753 -4.70111)
(6.65997 0.435832 -3.3281)
(7.24382 0.165508 -1.44696)
(7.40796 -0.00238814 0.47967)
(7.23766 0.00657552 2.52396)
(6.86022 -0.0603486 4.30715)
(6.20316 -0.0861188 5.76641)
(5.2312 -0.0106753 6.90748)
(4.16376 0.0294991 7.35004)
(3.28221 0.0833373 7.4625)
(2.82274 0.313213 6.02086)
(2.48221 0.387986 6.57253)
(1.96049 0.301128 6.45215)
(1.83216 0.26361 6.95386)
(1.54836 0.327533 7.40753)
(1.08134 0.434046 7.64518)
(0.837302 0.310481 7.18456)
(0.667751 0.308297 7.43594)
(0.435175 0.31874 7.61001)
(0.214625 0.340366 7.74497)
(-0.00785154 0.348708 8.15054)
(-0.169495 0.332062 8.36303)
(-0.283863 0.33681 8.46335)
(-0.365767 0.356148 8.48673)
(-0.424948 0.379397 8.47272)
(-0.468427 0.40159 8.43158)
(-0.505255 0.422204 8.37166)
(-0.538373 0.442953 8.29982)
(-0.57071 0.464633 8.21727)
(-0.603856 0.48774 8.12471)
(-0.638726 0.51256 8.02153)
(-0.676306 0.539117 7.90656)
(-0.717904 0.567842 7.77773)
(-0.765008 0.598893 7.63212)
(-0.818178 0.631744 7.46621)
(-0.878645 0.666659 7.27573)
(-0.947308 0.703641 7.05471)
(-1.02504 0.74227 6.79317)
(-1.11156 0.780051 6.47494)
(-1.21128 0.819985 6.07844)
(-1.32348 0.869454 5.57127)
(-1.44156 0.931777 4.90257)
(-1.52145 0.955945 4.01352)
(-1.4848 0.878971 2.92042)
(-1.12168 0.482853 1.96021)
(0.0803695 -0.481673 -0.789729)
(3.30193 -0.666585 1.86391)
(5.13414 1.14789 3.38748)
(7.16936 1.72349 5.22225)
(5.31368 6.42213 0.994165)
(1.91464 6.02252 -2.44865)
(1.32921 3.55154 -4.55393)
(-0.0685254 3.39329 -3.37483)
(-0.753724 2.74602 -3.30966)
(-1.10813 0.995949 -2.54927)
(-0.862802 0.715417 -1.96596)
(-1.40356 1.60212 -2.53535)
(-1.80734 1.88261 -3.46077)
(-1.96414 3.3012 -2.94699)
(-0.780398 6.30409 -1.84341)
(-0.0551098 5.32594 -3.13299)
(-0.697801 3.04143 -3.15113)
(1.07179 1.84527 -1.56769)
(0.102522 3.08063 -2.01129)
(-0.0563826 1.60912 -2.03555)
(0.591416 2.97631 -1.62199)
(0.0655187 1.69997 -1.42178)
(0.480217 2.58788 -1.26566)
(0.267489 3.61207 -1.67334)
(1.9908 3.64724 -0.429668)
(2.59024 4.08253 0.00498939)
(3.84763 4.38574 0.771416)
(2.83043 3.06875 -0.369661)
(3.30147 5.36588 0.00796828)
(3.60874 5.52177 0.0929267)
(3.13745 3.18491 -0.105497)
(4.01777 4.12452 1.02365)
(4.89946 5.51348 1.01869)
(5.02797 5.5498 0.791425)
(4.50928 7.3252 -1.47487)
(2.5756 6.16133 -2.44981)
(4.2922 6.33959 1.16776)
(5.15948 4.85058 3.49873)
(3.13921 2.13731 5.26551)
(2.26162 1.14998 4.61716)
(1.22604 0.87643 4.73151)
(-0.431595 1.25221 5.386)
(-1.61581 1.26391 5.64236)
(-2.15514 1.12887 6.05642)
(-2.29814 0.974074 6.68885)
(-2.24499 0.807997 7.29104)
(-2.13837 0.664607 7.74937)
(-2.02793 0.563435 8.09029)
(-1.92398 0.490259 8.3554)
(-1.82475 0.433735 8.5669)
(-1.72665 0.385984 8.73675)
(-1.63255 0.34735 8.8736)
(-1.54531 0.316382 8.98698)
(-1.46492 0.291485 9.08226)
(-1.39038 0.270968 9.16302)
(-1.32139 0.253831 9.23203)
(-1.25725 0.239063 9.29169)
(-1.19754 0.226416 9.34357)
(-1.1415 0.215685 9.38856)
(-1.08841 0.206819 9.42728)
(-1.03702 0.199691 9.45978)
(-0.985063 0.194415 9.48502)
(-0.929693 0.191169 9.49978)
(-0.863337 0.192347 9.50016)
(-0.777147 0.201774 9.47815)
(-0.65663 0.22654 9.43314)
(-0.467393 0.265901 9.33018)
(-0.224306 0.295548 9.18118)
(0.0261201 0.292959 9.05016)
(0.319582 0.279519 8.83344)
(0.581662 0.293575 8.56577)
(0.964146 -0.0362951 9.21168)
(1.43869 -0.0103191 8.95439)
(1.87543 0.0796099 8.32128)
(2.19136 0.128592 7.7351)
(2.95038 -0.00988998 8.16882)
(3.70171 4.1732e-05 8.47955)
(4.79891 -0.0723665 8.05734)
(5.33281 -0.261778 8.16383)
(6.13183 -0.154481 6.87256)
(7.10449 0.0306983 5.21154)
(7.57843 0.354382 3.17807)
(7.37246 0.949274 0.836482)
(6.8748 1.16296 -1.73385)
(6.37367 0.757537 -3.53547)
(5.55962 0.473918 -3.56468)
(7.08054 0.285447 -1.11322)
(5.56004 0.413125 -3.71391)
(5.50529 -0.318953 -3.61294)
(5.51455 -0.397948 -3.44973)
(5.53513 -0.734252 -3.98174)
(4.76987 -0.394343 -5.34518)
(4.98017 -0.47557 -5.46316)
(4.21827 -0.318179 -6.40189)
(3.75206 0.0570783 -7.07165)
(2.87564 -0.0161247 -7.6779)
(3.53821 0.18621 -7.44872)
(4.16899 0.042905 -6.91366)
(4.5053 -0.249193 -6.24785)
(4.5238 0.0673609 -6.24842)
(4.38984 0.209391 -6.48568)
(4.32181 0.0604181 -6.85691)
(4.20397 0.280603 -6.94559)
(3.45492 0.229657 -7.54158)
(3.49903 0.264148 -7.7338)
(3.88101 -0.0254692 -8.13832)
(4.22043 0.028267 -7.16447)
(4.19808 -0.192553 -7.30543)
(4.29621 -0.170731 -7.01412)
(4.36432 -0.270254 -6.66046)
(4.51377 -0.110899 -6.42191)
(4.9945 0.11859 -5.72217)
(5.52091 -0.125542 -4.88289)
(6.1222 0.1832 -4.02384)
(6.78319 0.466694 -2.73539)
(7.28553 0.64428 -1.18933)
(7.5297 0.591749 0.515392)
(7.38983 0.360581 2.1089)
(6.96733 0.157114 3.56888)
(6.33064 0.0521772 4.85707)
(5.433 0.0881751 5.92007)
(4.43529 0.197225 6.48958)
(3.66368 0.358762 5.45895)
(3.3689 0.362003 6.005)
(3.5263 0.518245 5.19963)
(3.15831 0.19281 4.76019)
(3.00216 0.14791 4.87961)
(2.3176 0.0441394 5.13817)
(2.31522 -0.00921536 5.49275)
(2.00951 0.105996 5.57697)
(1.37219 -0.0787517 5.40062)
(1.26205 0.0203403 5.73808)
(1.15108 -0.0277144 5.92091)
(0.958446 0.0409933 6.00434)
(0.794742 0.0581111 6.18687)
(0.597033 0.0777611 6.07263)
(0.319114 -0.23406 5.60948)
(0.321337 -0.234802 5.73348)
(0.305159 -0.227017 5.71686)
(0.288704 -0.214813 5.70717)
(0.277545 -0.20529 5.68444)
(0.270296 -0.196345 5.6465)
(0.267919 -0.190776 5.57505)
(0.268897 -0.186075 5.47624)
(0.272104 -0.180432 5.35716)
(0.276746 -0.174912 5.2203)
(0.280971 -0.168205 5.068)
(0.285324 -0.161901 4.90097)
(0.289609 -0.154507 4.71663)
(0.293241 -0.146761 4.51253)
(0.296141 -0.138893 4.28636)
(0.298669 -0.131092 4.03536)
(0.301637 -0.125688 3.75434)
(0.305066 -0.123912 3.43756)
(0.309165 -0.127599 3.07521)
(0.31312 -0.138227 2.64535)
(0.311866 -0.158491 2.10536)
(0.296738 -0.1873 1.3877)
(0.252276 -0.226098 0.400239)
(0.336426 -0.310185 -1.27905)
(0.425141 -0.6123 -3.51321)
(0.0188984 -0.532276 -4.76679)
(0.157501 -0.116961 -4.48337)
(-0.166263 -0.293227 -3.66617)
(0.477722 -0.673723 -2.35106)
(-0.121876 0.0829613 -4.06289)
(-1.23027 0.782182 0.64818)
(-1.03713 1.14465 1.80729)
(-0.969808 1.0786 2.91732)
(-0.869464 0.991249 3.75181)
(-0.777867 0.932025 4.39061)
(-0.699993 0.8846 4.88745)
(-0.631692 0.839991 5.28421)
(-0.569868 0.798169 5.61224)
(-0.514246 0.759426 5.89168)
(-0.464164 0.723619 6.13354)
(-0.418937 0.69036 6.34465)
(-0.378029 0.659726 6.53064)
(-0.341676 0.631745 6.69594)
(-0.30921 0.605926 6.84335)
(-0.279404 0.581499 6.9756)
(-0.251826 0.55785 7.09443)
(-0.225763 0.535034 7.19974)
(-0.199674 0.512328 7.28983)
(-0.171223 0.490032 7.36135)
(-0.136522 0.467656 7.40562)
(-0.0899708 0.449117 7.41539)
(-0.0277492 0.432531 7.36932)
(0.0453867 0.418768 7.24408)
(0.115245 0.406922 7.04135)
(0.214162 0.36182 6.73401)
(0.895499 0.420544 5.86305)
(0.700214 -0.718948 6.57236)
(0.348911 -0.581683 7.01782)
(0.124419 -0.606961 6.69853)
(0.0986175 -0.543494 6.90245)
(0.0472444 -0.514078 6.97716)
(0.00143176 -0.508473 7.00934)
(-0.0307954 -0.514763 6.99672)
(-0.0511652 -0.528509 6.94879)
(-0.0634513 -0.546838 6.86933)
(-0.0721874 -0.565353 6.7638)
(-0.0797406 -0.583116 6.63968)
(-0.0868246 -0.600925 6.49939)
(-0.0953909 -0.61954 6.3442)
(-0.104725 -0.639729 6.17397)
(-0.115739 -0.661458 5.98574)
(-0.128233 -0.684581 5.77692)
(-0.142278 -0.708599 5.54458)
(-0.158077 -0.734068 5.28611)
(-0.17526 -0.761859 4.99641)
(-0.194393 -0.792807 4.66885)
(-0.216303 -0.827942 4.29278)
(-0.242849 -0.869049 3.84692)
(-0.274802 -0.919839 3.29319)
(-0.312577 -0.993294 2.57709)
(-0.353313 -1.11726 1.64904)
(-0.432445 -1.27251 0.479195)
(-0.69617 -0.704627 -1.85919)
(-0.813825 -0.576891 -4.07376)
(-0.48978 0.0394711 -3.34528)
(-0.971839 0.335836 -2.91273)
(-0.457891 0.512014 -2.15733)
(-0.0411965 1.39903 -4.13736)
(6.40938 -0.306895 2.5108)
(10.4785 -0.381686 1.29177)
(8.52494 -3.2746 4.72606)
(6.90975 -4.81517 0.79847)
(5.03405 -3.93452 -2.60425)
(2.90092 -2.39346 -3.44023)
(8.07864 -2.51519 -2.18862)
(8.21368 -1.0298 -1.25248)
(0.934577 -1.13931 -3.40365)
(0.826691 1.10968 -3.23888)
(0.899184 0.990029 -3.3233)
(0.156051 0.599267 -2.70956)
(-0.0105923 0.696174 -2.51625)
(-0.0774163 1.21031 -2.90239)
(-0.374818 1.82428 -3.94128)
(2.02047 3.51301 -3.46211)
(5.07202 3.91553 -2.60459)
(2.92789 2.34991 -3.43789)
(0.955899 1.58782 -3.69223)
(1.56595 0.791054 -1.971)
(1.2205 0.513165 -1.66832)
(0.610125 0.360264 -1.66396)
(0.93519 0.443622 -1.74755)
(0.91974 0.869101 -1.78873)
(1.202 0.642175 -1.96362)
(1.16608 0.313879 -1.98115)
(1.51852 0.0557903 -2.44999)
(0.416478 0.144602 -1.39185)
(0.197789 0.32159 -2.52981)
(0.253375 0.082606 -1.5491)
(0.130027 0.261178 -1.5233)
(-0.0809115 0.411351 -1.40758)
(-0.202291 0.376065 -1.34409)
(-0.255348 0.362308 -1.20332)
(-0.313932 0.711007 -1.77349)
(-0.989901 1.29713 -3.48343)
(-0.578263 1.48795 -3.45893)
(-0.0942884 0.635667 -1.93297)
(0.21325 0.663013 -1.49117)
(0.0372881 0.413437 -1.06579)
(0.000188717 0.251108 -0.831507)
(-0.053936 0.222773 -1.01966)
(-0.12402 0.230783 -0.933319)
(-0.175334 0.241852 -0.839969)
(-0.240744 0.197332 -0.767774)
(-0.264445 0.186102 -0.687164)
(-0.378952 0.256296 -0.903527)
(-0.534837 0.443941 -1.18853)
(-0.594853 0.299596 -0.990409)
(-0.868598 0.497442 -1.44222)
(-1.62064 0.874142 -1.95765)
(-2.61155 1.78903 -2.22796)
(-1.96606 2.14845 -2.21159)
(-2.03744 2.69662 -1.83766)
(-1.48859 5.13455 -0.0986048)
(-0.283563 5.61509 0.481885)
(1.78212 5.7827 2.50523)
(1.0895 6.7727 1.25882)
(3.00496 4.15102 3.69585)
(2.68325 3.71955 4.68086)
(2.74454 3.433 1.63113)
(1.54576 4.59561 1.53668)
(2.43818 4.06333 2.03448)
(3.06266 3.60146 2.74397)
(3.15756 4.55025 2.6348)
(3.60328 2.30464 3.85898)
(4.07266 1.48555 4.72612)
(7.10734 3.0777 3.8157)
(5.42244 0.275341 6.19728)
(5.32775 0.546643 6.28072)
(6.87017 2.56748 4.64778)
(5.61663 1.3166 5.54444)
(4.78122 0.232405 6.17639)
(4.32437 0.598741 5.77655)
(5.60577 1.67541 5.35916)
(6.10265 0.835464 5.55503)
(6.88602 0.551237 7.12779)
(6.10629 0.360686 8.31619)
(4.79432 0.505607 8.35726)
(2.9303 0.383646 7.10387)
(1.5456 0.340596 5.58765)
(0.800789 0.0425173 4.21194)
(0.375708 -0.163379 3.46297)
(0.369787 -0.306977 2.84274)
(0.500183 -0.311368 2.55532)
(0.631931 -0.198543 2.58686)
(0.728316 -0.0680749 2.79933)
(0.79228 0.0372979 3.09034)
(0.834545 0.112541 3.40958)
(0.863951 0.165715 3.72965)
(0.883841 0.20453 4.03447)
(0.89554 0.234112 4.31623)
(0.901044 0.25771 4.57392)
(0.902076 0.277307 4.80901)
(0.899906 0.29333 5.02291)
(0.893924 0.305386 5.21729)
(0.885057 0.31355 5.39421)
(0.875313 0.318307 5.5548)
(0.867747 0.320093 5.6992)
(0.866044 0.319392 5.82661)
(0.875222 0.318461 5.9353)
(0.902621 0.317786 6.0232)
(0.95501 0.317342 6.08675)
(1.03911 0.319324 6.11997)
(1.16145 0.317945 6.11678)
(1.32367 0.318518 6.0341)
(1.59856 0.348432 6.1246)
(1.83408 0.339485 6.0487)
(2.0302 0.33457 6.04363)
(2.22739 0.524969 5.74212)
(1.35637 0.469917 6.92014)
(1.58932 0.398146 6.5262)
(2.49784 0.568099 5.26271)
(2.48235 -0.706728 5.80584)
(1.92937 -0.617778 6.32624)
(1.25474 -0.697084 6.3361)
(1.1032 -0.650071 6.69933)
(0.933135 -0.546444 6.9019)
(0.715353 -0.563012 7.00147)
(0.541483 -0.547106 7.18179)
(0.148684 -0.383155 8.37483)
(-0.0721526 -0.406017 8.47603)
(-0.30915 -0.373843 8.75468)
(-0.475274 -0.358468 8.92503)
(-0.584311 -0.364794 8.99801)
(-0.661521 -0.380647 9.01237)
(-0.717466 -0.400213 9.00077)
(-0.759822 -0.420654 8.96848)
(-0.796994 -0.441253 8.92094)
(-0.832466 -0.462797 8.8635)
(-0.868008 -0.48533 8.79706)
(-0.905131 -0.509133 8.72188)
(-0.943954 -0.534304 8.63722)
(-0.985448 -0.561364 8.54014)
(-1.0315 -0.590053 8.42802)
(-1.08376 -0.620865 8.30019)
(-1.14206 -0.654666 8.15449)
(-1.20674 -0.692263 7.98566)
(-1.27814 -0.733595 7.78688)
(-1.3557 -0.778259 7.54808)
(-1.43724 -0.824223 7.25376)
(-1.52409 -0.87529 6.8827)
(-1.61641 -0.938673 6.40053)
(-1.70723 -1.0095 5.74699)
(-1.75895 -1.02792 4.83493)
(-1.71449 -0.930392 3.65705)
(-1.34532 -0.538532 2.47246)
(-0.117038 0.594727 -0.203858)
(2.63508 0.670147 1.47509)
(4.82186 -1.22957 3.01006)
(7.42861 -1.86347 5.12912)
(5.2879 -6.82386 1.05761)
(1.713 -6.49734 -2.39473)
(1.14952 -3.50685 -4.50527)
(1.95278 -3.52807 -3.42283)
(-0.371546 -1.84418 -3.92247)
(-0.0799654 -1.25826 -2.91075)
(0.954036 -1.64615 -3.68914)
(0.90089 -1.06227 -3.33903)
(0.145471 -0.649553 -2.72611)
(0.201877 -0.330752 -2.6132)
(0.251805 -0.103692 -1.56247)
(0.0944897 -0.0700253 -1.10854)
(0.102139 0.0425174 -1.10013)
(0.0404104 0.14199 -1.08781)
(0.0321348 0.0842988 -0.775865)
(-0.0198147 0.152647 -0.744926)
(-0.0717081 0.168459 -0.714313)
(-0.118108 0.191188 -0.655262)
(-0.183012 0.16101 -0.615593)
(-0.224442 0.148472 -0.564194)
(-0.275934 0.0966873 -0.524626)
(-0.31604 0.138306 -0.615357)
(-0.418772 0.177705 -0.765486)
(-0.412358 0.0988245 -0.669089)
(-0.543477 0.168446 -0.841674)
(-0.751693 0.270551 -1.05616)
(-1.17548 0.433628 -1.44114)
(-1.35226 0.725557 -1.6952)
(-1.75769 0.793031 -2.41358)
(-2.05071 1.70196 -2.55972)
(-2.08973 1.62023 -2.22564)
(-2.19568 2.27471 -1.74812)
(-2.54063 2.63591 -1.20817)
(-2.28822 3.28865 -0.80853)
(-1.89226 2.8195 -1.29163)
(-1.35859 4.0622 -0.606896)
(-0.811022 4.0547 2.57691)
(0.267402 4.6606 2.85476)
(1.75755 4.48504 3.69136)
(2.17193 3.24561 5.05542)
(1.03567 2.03535 6.38888)
(0.312914 1.43513 7.05323)
(-0.651007 1.25606 7.76612)
(-1.75691 1.01041 8.23137)
(-2.35732 0.681517 8.28444)
(-2.48942 0.386451 8.35222)
(-2.40328 0.156484 8.59861)
(-2.22136 -0.032414 8.87993)
(-2.04806 -0.164361 9.09228)
(-1.89098 -0.242848 9.25149)
(-1.76282 -0.287861 9.3806)
(-1.65251 -0.313553 9.48805)
(-1.55174 -0.328598 9.5733)
(-1.46056 -0.334598 9.63658)
(-1.38069 -0.33312 9.68498)
(-1.31057 -0.326647 9.72385)
(-1.24793 -0.317606 9.75508)
(-1.19124 -0.307872 9.77985)
(-1.1392 -0.298921 9.79928)
(-1.09088 -0.290018 9.81438)
(-1.04534 -0.280852 9.82575)
(-1.00175 -0.271284 9.83383)
(-0.958989 -0.26134 9.83922)
(-0.915109 -0.250911 9.84226)
(-0.866486 -0.23968 9.84293)
(-0.80524 -0.226914 9.84107)
(-0.722077 -0.211583 9.83581)
(-0.598787 -0.1916 9.82676)
(-0.424115 -0.168556 9.80922)
(-0.208319 -0.136191 9.78325)
(0.0349997 -0.106147 9.73946)
(0.500081 -0.0885912 9.55992)
(0.512162 -0.172379 10.2963)
(1.11666 -0.100815 9.97931)
(1.79351 -0.0371754 9.58988)
(2.40114 0.00734568 8.98658)
(3.01648 0.00557446 9.42947)
(3.50126 -0.147813 9.63087)
(4.26806 -0.19089 9.34032)
(4.03986 -0.662595 9.51288)
(5.06096 -0.456085 8.70276)
(5.73487 -0.265662 8.28616)
(6.20445 -0.590266 6.94848)
(6.8276 -0.45828 6.19527)
(7.55912 -0.472934 4.96657)
(8.03865 -0.477808 3.53203)
(8.16281 -0.423701 1.85389)
(7.956 -0.127159 -0.139468)
(7.92006 0.279593 -0.0601815)
(7.03759 -0.15252 -1.03687)
(5.73162 0.723164 -4.88079)
(7.22704 0.29495 -4.80348)
(6.69733 0.0197513 -4.04678)
(6.63303 -0.248131 -3.78567)
(6.59517 -0.42722 -2.93329)
(6.7041 -0.437955 -1.59227)
(6.42863 -0.512823 -0.892834)
(6.3567 -0.0519248 -1.18145)
(6.37543 0.131998 -0.14057)
(6.44172 0.217296 0.406289)
(6.44574 0.272914 0.987216)
(6.26718 0.346946 1.58229)
(5.96733 0.24316 1.9462)
(5.88391 0.275638 2.18215)
(5.37828 0.185942 2.73978)
(4.88644 0.230465 3.49683)
(4.6556 0.211572 3.62357)
(4.00598 0.230871 4.19364)
(3.80687 0.210072 4.33031)
(3.83388 -0.711402 4.84345)
(3.19639 -0.824329 5.38851)
(2.99515 -0.675998 5.50043)
(2.298 -0.719354 5.90398)
(2.25163 -0.570136 6.27402)
(1.87714 -0.428705 7.16465)
(1.70808 -0.389851 7.62981)
(1.39904 -0.397377 8.04927)
(0.925933 -0.494218 8.24159)
(0.60147 -0.36309 7.94225)
(0.392529 -0.366946 8.18833)
(0.176343 -0.265501 9.38421)
(-0.109471 -0.257444 9.57949)
(-0.348177 -0.242301 9.67784)
(-0.592086 -0.20012 9.79208)
(-0.766922 -0.156238 9.8783)
(-0.880189 -0.131739 9.92681)
(-0.962819 -0.122504 9.95182)
(-1.02755 -0.121908 9.95869)
(-1.08247 -0.125972 9.95471)
(-1.13484 -0.13237 9.94302)
(-1.18763 -0.140156 9.92603)
(-1.24248 -0.148989 9.90424)
(-1.30072 -0.159052 9.87764)
(-1.36272 -0.170573 9.84568)
(-1.42903 -0.184261 9.80717)
(-1.50082 -0.201232 9.76028)
(-1.57901 -0.222737 9.70316)
(-1.66366 -0.249719 9.63376)
(-1.75566 -0.284181 9.54838)
(-1.85574 -0.327946 9.44082)
(-1.96135 -0.382292 9.30122)
(-2.07046 -0.447171 9.12129)
(-2.18732 -0.531041 8.89184)
(-2.31849 -0.648843 8.58812)
(-2.45482 -0.811207 8.15427)
(-2.56329 -0.994383 7.5337)
(-2.521 -1.15942 6.79625)
(-2.12634 -1.30707 6.15135)
(-1.0835 -1.32991 5.56961)
(0.649159 -1.02572 4.52149)
(2.06932 -1.06816 4.2015)
(3.56622 -1.69312 5.67407)
(6.61795 -5.62768 2.18429)
(3.35105 -5.37812 4.74253)
(2.11065 -7.15901 0.797469)
(3.212 -7.0573 -0.781793)
(-0.579556 -4.87133 -3.14365)
(-0.90496 -2.91856 -3.20433)
(-1.47805 -1.57095 -2.46594)
(-0.980918 -0.733644 -1.8987)
(-1.17951 -1.03808 -2.48587)
(-1.02609 -1.28588 -3.43816)
(-0.597708 -1.45564 -3.41864)
(-0.128099 -0.67166 -1.9283)
(-0.0230963 -0.737625 -2.52537)
(-0.101383 -0.441137 -1.40334)
(0.111128 -0.301981 -1.52454)
(0.0207025 -0.174007 -1.0826)
(0.0182476 -0.111456 -0.767555)
(0.0541378 -0.0434558 -0.787455)
(0.0599108 0.0199274 -0.788051)
(0.0327954 0.0118273 -0.626146)
(0.0165461 0.0524323 -0.620097)
(-0.0137018 0.103147 -0.603708)
(-0.0516117 0.119115 -0.592758)
(-0.094388 0.143118 -0.551124)
(-0.150358 0.120388 -0.5302)
(-0.191317 0.106022 -0.486627)
(-0.236367 0.0607114 -0.448381)
(-0.255853 0.00352454 -0.407776)
(-0.304123 0.0311538 -0.479617)
(-0.350106 0.0716061 -0.55611)
(-0.348766 -0.00918641 -0.510752)
(-0.396552 0.0317047 -0.603673)
(-0.480748 0.0875655 -0.721015)
(-0.625456 0.154629 -0.879549)
(-0.822659 0.303841 -1.15292)
(-1.28397 0.460382 -1.51797)
(-1.80684 0.747064 -2.03207)
(-2.6406 1.37872 -1.79958)
(-2.92951 2.04955 -1.24939)
(-2.86047 2.55781 -0.535395)
(-1.50318 2.27958 0.0423372)
(-1.09868 1.7636 0.0535265)
(-1.05268 1.32967 0.0604422)
(-0.978381 0.984524 0.0829138)
(-0.944389 0.8634 0.0428429)
(-0.833509 0.789815 -0.239031)
(-0.804605 0.947748 -0.27626)
(-0.81682 1.08249 -0.227592)
(-0.844082 1.06699 -0.239948)
(-0.9838 1.33056 0.035561)
(-0.955924 1.49632 0.049682)
(-0.933318 1.89422 0.21784)
(-0.35679 2.08748 0.519125)
(-0.585858 2.7451 1.25063)
(-2.06674 2.89983 1.08094)
(-1.73495 3.8712 0.769831)
(-1.29208 2.91217 2.87923)
(-0.276169 2.0864 4.41802)
(0.270889 1.54644 5.816)
(-0.421155 0.613718 7.20758)
(-1.12963 -0.209845 8.22646)
(-1.64137 -0.740612 9.10221)
(-2.0164 -0.991747 9.65208)
(-2.15012 -1.09319 9.88377)
(-2.06701 -1.09006 10.0071)
(-1.9079 -1.04957 10.178)
(-1.73783 -1.02866 10.3336)
(-1.58356 -0.990767 10.4211)
(-1.43939 -0.942907 10.4722)
(-1.32795 -0.891415 10.5009)
(-1.23784 -0.842737 10.5249)
(-1.1581 -0.799457 10.5368)
(-1.08926 -0.759902 10.5311)
(-1.0307 -0.722276 10.5139)
(-0.980457 -0.68634 10.4907)
(-0.936528 -0.652305 10.4628)
(-0.897319 -0.619788 10.4308)
(-0.861821 -0.588978 10.3958)
(-0.829133 -0.55951 10.3586)
(-0.798725 -0.531276 10.3202)
(-0.769859 -0.503936 10.2815)
(-0.741709 -0.477244 10.2437)
(-0.712756 -0.450701 10.2086)
(-0.680179 -0.423628 10.1787)
(-0.637705 -0.394969 10.1561)