/*--------------------------------*- C++ -*----------------------------------*\
  =========                 |
  \\      /  F ield         | OpenFOAM: The Open Source CFD Toolbox
   \\    /   O peration     | Website:  https://openfoam.org
    \\  /    A nd           | Version:  7
     \\/     M anipulation  |
\*---------------------------------------------------------------------------*/
FoamFile
{
    version     2.0;
    format      ascii;
    class       volScalarField;
    location    "19";
    object      alpha.water;
}
// * * * * * * * * * * * * * * * * * * * * * * * * * * * * * * * * * * * * * //

dimensions      [0 0 0 0 0 0 0];

internalField   nonuniform List<scalar> 
15010
(
1.00114
1.00115
1.00113
1.00109
1.00107
1.00105
1.00113
1.00123
1.00141
1.00151
1.00136
1.00123
1.00116
1.00117
1.00117
1.00121
1.00122
1.00121
1.00121
1.00114
1.00114
1.00113
1.00109
1.00106
1.00103
1.00101
1.0011
1.00121
1.00145
1.00154
1.00134
1.0012
1.00112
1.00113
1.00114
1.00117
1.00119
1.00119
1.00119
1.00111
1.0011
1.00105
1.00101
1.00099
1.00097
1.00105
1.00117
1.00145
1.00154
1.00129
1.00115
1.00107
1.00108
1.00109
1.00113
1.00117
1.00115
1.00115
1.00109
1.00108
1.00102
1.00097
1.00094
1.00092
1.001
1.00112
1.00144
1.00153
1.00124
1.0011
1.00102
1.00103
1.00105
1.00109
1.00106
1.00111
1.00113
1.00106
1.00104
1.00098
1.00093
1.0009
1.00087
1.00095
1.00107
1.00142
1.00151
1.00119
1.00105
1.00097
1.00099
1.00101
1.00097
1.00102
1.00107
1.00109
1.00102
1.00101
1.00095
1.00089
1.00085
1.00083
1.0009
1.00101
1.00139
1.00148
1.00112
1.001
1.00092
1.00094
1.00089
1.00093
1.00098
1.00103
1.00105
1.00099
1.00097
1.00091
1.00085
1.0008
1.00078
1.00085
1.00095
1.00134
1.00143
1.00106
1.00095
1.00087
1.00082
1.00084
1.00089
1.00094
1.00099
1.00101
1.00095
1.00093
1.00087
1.00081
1.00076
1.00073
1.00079
1.00089
1.00126
1.00136
1.001
1.00089
1.00083
1.00077
1.0008
1.00084
1.0009
1.00095
1.00097
1.00092
1.0009
1.00083
1.00077
1.00071
1.00068
1.00074
1.00082
1.00117
1.00127
1.00093
1.00085
1.00078
1.00072
1.00075
1.0008
1.00086
1.00092
1.00094
1.00089
1.00086
1.00079
1.00073
1.00067
1.00063
1.00068
1.00075
1.00105
1.00117
1.00103
1.00078
1.00072
1.00067
1.0007
1.00076
1.00081
1.00088
1.00091
1.00086
1.00082
1.00075
1.00068
1.00062
1.00059
1.00062
1.00068
1.00093
1.00078
1.00089
1.00071
1.00066
1.00063
1.00066
1.00071
1.00077
1.00084
1.00088
1.00083
1.00079
1.00071
1.00064
1.00058
1.00054
1.00057
1.00061
1.00055
1.00066
1.00076
1.00064
1.00061
1.00058
1.00062
1.00067
1.00073
1.0008
1.00084
1.00079
1.00075
1.00067
1.0006
1.00054
1.0005
1.00052
1.00048
1.0005
1.00055
1.00064
1.00059
1.00057
1.00054
1.00058
1.00064
1.0007
1.00077
1.00079
1.00075
1.00072
1.00064
1.00057
1.0005
1.00046
1.00043
1.00039
1.00039
1.00043
1.00047
1.00044
1.00036
1.00035
1.00041
1.00048
1.00056
1.00048
1.00052
1.00048
1.00051
1.00055
1.0006
1.00067
1.00073
1.0007
1.0006
1.00054
1.00047
1.00044
1.0004
1.00037
1.00033
1.00031
1.00034
1.00042
1.00049
1.00044
1.00045
1.00048
1.00051
1.00057
1.00062
1.00069
1.00066
1.00055
1.0005
1.00048
1.00041
1.00038
1.00033
1.0003
1.00026
1.00024
1.00019
1.00026
1.00034
1.00031
1.00034
1.00039
1.00041
1.00044
1.00048
1.00054
1.00058
1.00065
1.00062
1.00051
1.00047
1.00043
1.0004
1.00035
1.00031
1.00027
1.00021
1.0002
1.00016
1.00024
1.00022
1.00038
1.00036
1.00027
1.00029
1.00036
1.00038
1.00041
1.00045
1.0005
1.00055
1.00053
1.00058
1.00054
1.0005
1.00047
1.00041
1.00046
1.00054
1.00058
1.00056
1.00049
1.00054
1.00052
1.00036
1.00033
1.00028
1.00024
1.0002
1.00013
1.00017
1.00024
1.00022
1.00019
1.00017
1.00014
1.00013
1.00012
1.00013
1.00015
1.00016
1.00017
1.00013
1.00002
1.00004
1.00009
1.00006
1.00008
1.00008
1.00015
1.00018
1.00018
1.00018
1.00019
1.00021
1.00022
1.00023
1.00023
1.00024
1.00023
1.00023
1.00022
1.00021
1.0002
1.00018
1.00017
1.00015
1.00013
1.00011
1.0001
1.00008
1.00006
1.00004
1.00002
1.00001
0.999992
0.999978
0.999957
0.999976
0.99995
0.999918
0.999916
0.999906
0.999858
0.999852
0.999777
1
0.999998
1
0.999969
0.999931
0.999952
0.99998
0.999978
0.99991
0.999952
0.999435
0.999945
0.999959
0.999936
0.999861
0.999776
1.00004
1.00003
1.00006
1.00006
0.999937
0.999993
1
1.00001
1.00001
0.999973
0.999928
0.999989
0.999967
0.99994
0.999928
0.999976
0.99999
0.999984
0.999986
0.999986
0.99999
0.999996
1
1.00001
1.00002
1.00004
1.00006
1.00008
1.00009
1.00011
1.00013
1.00015
1.00016
1.00018
1.0002
1.00022
1.00024
1.00025
1.00025
1.00026
1.00025
1.00025
1.00024
1.00023
1.00022
1.0002
1.00015
1.00021
1.00018
1.00015
1.0001
1.00016
1.00018
1.00015
1.00015
1.00011
1.00011
1.00009
1.00008
1.00009
1.00011
1.00012
1.00012
1.00013
1.00021
1.0002
1.0002
1.00025
1.00028
1.00032
1.00036
1.00037
1.00044
1.0004
1.00038
1.00034
1.00039
1.00046
1.00042
1.00039
1.00045
1.00055
1.0005
1.00046
1.00041
1.00031
1.00026
1.00023
1.00024
1.00018
1.00014
1.00012
1.0001
1.00011
1.00011
1.00012
1.00013
1.00012
1.00002
1
1
1.00004
0.999997
1.00004
1.00001
0.999995
1.00005
1.0001
1.00013
1.00018
1.00018
1.00014
1.00017
1.00019
1.0002
1.00021
1.00022
1.00022
1.00023
1.00023
1.00023
1.00023
1.00022
1.00022
1.00022
1.00022
1.00022
1.00023
1.00023
1.00022
1.00022
1.00021
1.00021
1.00019
1.00017
1.00014
1.00014
1.00007
1.00003
1.00001
0.999872
0.999989
0.999981
0.999994
1.00001
1.00002
1.00004
1.00006
1.00008
1.0001
1.00012
1.00014
1.00015
1.00017
1.00018
1.00019
1.0002
1.0002
1.0002
1.0002
1.0002
1.00019
1.00018
1.00017
1.00016
1.00014
1.00009
1.00013
1.0002
1.00016
1.00014
1.00021
1.00022
1.00023
1.00025
1.00025
1.00026
1.00026
1.00027
1.00027
1.00027
1.00027
1.00027
1.00026
1.00026
1.00026
1.00025
1.00024
1.00023
1.00021
1.00019
1.00017
1.00014
1.00011
1.00006
1.00002
0.999924
0.999271
0.998997
1.00004
0.999938
0.999942
0.999982
0.999998
0.999983
0.99989
0.999944
0.99994
0.999783
0.999768
0.999908
0.999953
0.999963
0.999896
0.999714
0.999892
0.999977
0.999941
0.999835
0.999838
0.999623
0.999943
0.999973
0.99992
0.999941
0.999824
1
0.999988
0.999882
1
0.999958
0.999974
0.999974
0.999914
0.999974
0.999956
0.999899
0.999928
0.999984
0.999966
0.999965
0.999971
0.999939
0.999921
0.99993
0.999915
0.999977
0.999991
0.999994
1.00001
1.00001
0.999938
0.999841
0.999925
0.999948
0.999981
0.999986
1
0.99999
1.00008
1.00008
1.00004
1.00003
1.00002
1.00001
1.00011
1.00008
1.00002
1.00002
1.00003
1
1.00006
1.00003
1.00006
1.00004
1.00014
1.00011
1.00004
0.999987
0.999969
0.999994
1.00001
1
1.00001
1.00005
1.0001
1.00015
1.00019
1.00021
1.00022
1.00023
1.00023
1.00024
1.00024
1.00024
1.00025
1.00025
1.00026
1.00026
1.00025
1.00025
1.00023
1.00022
1.00021
1.00019
1.00017
1.00016
1.00013
1.00008
1.00002
1
0.999961
0.999961
1.00007
1.00004
1.0001
1.00021
1.00024
1.00024
1.00021
1.00028
1.00026
1.00029
1.00031
1.00032
1.00033
1.00033
1.00034
1.00034
1.00033
1.00032
1.00031
1.0003
1.00028
1.00027
1.00025
1.00023
1.00022
1.0002
1.00018
1.00015
1.00013
1.0001
1.00008
1.00006
1.00004
1.00002
1
0.999988
0.999966
0.999945
0.999953
1.00001
0.999997
0.999961
0.999883
0.999886
0.999752
0.999852
0.999919
0.999813
0.999949
0.999935
1
0.999936
0.99993
0.999952
0.999967
0.999935
0.999864
0.999797
0.999726
0.999884
0.999957
0.999972
0.999993
1.00001
1.00001
0.999922
0.999946
0.999875
0.999972
1
0.999963
0.999962
0.999943
0.999905
0.999963
0.999989
0.99998
0.999969
1
1.00003
1.00003
1.00003
1.00002
1.00001
1.00001
1.00001
1.00002
1.00003
1.00004
1.00006
1.00007
1.00009
1.00011
1.00013
1.00014
1.00016
1.00018
1.0002
1.00021
1.00023
1.00025
1.00026
1.00027
1.00027
1.00027
1.00027
1.00026
1.00025
1.00024
1.00021
1.00026
1.00024
1.00022
1.00019
1.0002
1.00019
1.00016
1.00017
1.00015
1.00013
1.00009
1.0001
1.00011
1.00012
1.00011
1.00011
1.00019
1.00015
1.00028
1.00031
1.00034
1.00035
1.00034
1.00031
1.00023
1.00017
1.0002
1.00019
1.00015
1.00013
1.00016
1.00014
1.00006
1.00007
1.00003
1.00003
0.999993
1.0001
1.00007
1.00006
1.00009
1.00008
1.00021
1.00017
1.00018
1.00018
1.00019
1.00023
1.00033
1.00031
1.00033
1.00034
1.00035
1.00035
1.00035
1.00035
1.00035
1.00034
1.00033
1.00032
1.0003
1.00029
1.00027
1.00026
1.00024
1.00023
1.00021
1.00019
1.00017
1.00015
1.00013
1.00011
1.00009
1.00008
1.00006
1.00005
1.00002
1.00001
1
0.999996
1.00002
1.00006
1.00006
1.00004
1.00004
1.00002
1.00006
1.0001
1.00009
1.00003
0.999986
1.00001
0.999922
0.999951
0.999843
0.999751
0.999621
0.999882
0.999993
1.00001
0.999895
0.999925
0.999945
0.999918
0.999827
0.999676
0.999461
0.999421
0.999731
0.999891
0.999945
0.999979
0.999998
1
0.999995
0.999983
0.999985
0.999998
0.999995
1.00003
1.00025
1.00036
1.00044
1.00053
1.00049
1.00012
1.00012
1.00022
1.00033
1.0004
1.00042
1.00035
1.00036
1.00025
1.00005
0.999997
1
1
1.00001
1.00004
1.00004
1.00004
1.00005
1.00005
1.00005
1.00004
1.00003
1.00003
1.00004
1.00005
1.00006
1.00008
1.0001
1.00012
1.00014
1.00016
1.00017
1.00019
1.00021
1.00023
1.00024
1.00026
1.00027
1.00028
1.00029
1.00029
1.00028
1.00028
1.00027
1.00025
1.00029
1.00026
1.00022
1.00022
1.0002
1.0002
1.00019
1.00017
1.00026
1.00022
1.0002
1.00018
1.00019
1.00019
1.00016
1.00017
1.00016
1.00018
1.00023
1.00026
1.00031
1.00031
1.00033
1.00037
1.0005
1.00046
1.00029
1.00025
1.0003
1.00025
1.00022
1.0002
1.00016
1.00013
1.00011
1.0001
1.0001
1.0001
1.00009
1.00002
1.00001
0.999978
1.00004
1.00013
1.00009
1.00005
1.00011
1.00014
1.00011
1.00013
1.00013
1.00016
1.00024
1.00026
1.00029
1.00031
1.00032
1.00034
1.00035
1.00036
1.00037
1.00038
1.00038
1.00038
1.00037
1.00036
1.00035
1.00034
1.00032
1.00031
1.00029
1.00028
1.00026
1.00025
1.00023
1.00021
1.00019
1.00017
1.00015
1.00014
1.00014
1.00013
1.00013
1.00012
1.00011
1.0001
1.00008
1.00006
1.00008
1.00013
1.00011
1.00013
1.00013
1.00009
1.00005
1.00006
1.00005
1.00009
1.0001
1.00009
1.00008
1.00007
1.00001
1.00003
0.999965
0.999966
0.999864
0.999827
0.999812
0.99932
0.999815
0.999783
0.999972
0.999861
0.999859
0.9999
0.999883
0.999815
0.999636
0.999257
0.998911
0.999291
0.999665
0.999851
0.999937
0.999966
0.999988
0.999999
0.999996
0.999982
0.99996
0.999979
0.999999
1.00001
1.00008
1.00022
1.00028
1.00047
1.00066
1.00067
1.00064
1.0001
1.00017
1.00011
1.00008
1.00006
1.00008
1.0001
1.00011
1.00013
1.00009
1.00005
1.00002
1
0.999961
0.999932
0.99994
0.999951
0.999937
0.999915
0.999915
0.999906
0.999897
0.999835
0.999773
0.999598
0.999248
0.998772
0.998853
0.624145
0.750653
0.838647
0.901195
0.92873
0.950217
0.971568
0.984508
0.991726
0.994385
0.99679
0.998391
0.999189
0.999575
0.999659
0.999803
0.999663
0.999817
0.999878
0.999907
0.999933
0.999922
0.999886
0.999854
0.999831
0.999903
0.999951
0.999984
1.00004
0.999988
0.999994
0.999989
1
1.00004
1.00004
1.00002
1.00001
1.00001
0.999932
0.999948
0.999976
0.999982
0.999939
0.999883
0.999826
0.999928
0.99998
0.999896
0.999876
0.999773
0.999664
0.999876
0.999903
0.999779
0.999565
0.999726
0.999687
0.999796
0.999809
0.999568
0.999359
0.998795
0.99755
0.995174
0.990681
0.982612
0.968336
0.94407
0.902555
0.901538
0.837008
0.748911
0.631177
0.619419
0.740686
0.835252
0.833558
0.873426
0.904742
0.943378
0.968155
0.982637
0.990751
0.995085
0.996711
0.998157
0.999121
0.999545
0.999658
0.999574
0.999162
0.998851
0.99942
0.999723
0.999784
0.999497
0.999497
0.999704
0.99989
0.999705
0.999611
0.999455
0.999739
0.999946
0.999919
0.999751
0.999688
0.999811
0.999442
0.999496
0.999833
0.99991
0.999612
0.999375
0.999533
0.999531
0.99982
0.999931
0.999701
0.999686
0.999905
0.999636
0.999687
0.998851
0.999138
0.999578
0.999305
0.998672
0.997373
0.994875
0.990244
0.98224
0.968306
0.944873
0.903179
0.834199
0.833814
0.74255
0.741718
0.622861
0.39066
0.485939
0.612487
0.736643
0.741804
0.832724
0.89808
0.926378
0.947093
0.969566
0.983197
0.990851
0.993878
0.996319
0.998045
0.998918
0.999131
0.999518
0.999756
0.999809
0.9999
0.999932
0.999937
0.999954
0.999964
0.99997
0.99993
0.999957
0.999988
0.999975
0.999944
0.999894
0.999933
0.999957
0.999973
0.999914
0.999967
0.999947
0.99991
0.999938
0.999889
0.999826
0.999767
0.999567
0.999266
0.998522
0.998433
0.997144
0.994623
0.989708
0.981
0.965928
0.940739
0.898515
0.898269
0.83219
0.746626
0.684719
0.756724
0.838674
0.834538
0.903368
0.945118
0.969352
0.982319
0.990175
0.994587
0.99711
0.99807
0.998981
0.999468
0.999623
0.999791
0.999834
0.999594
0.999119
0.99944
0.999587
0.999409
0.999675
0.999803
0.999804
0.999673
0.999559
0.999528
0.999244
0.998886
0.999097
0.998496
0.998323
0.99888
0.999134
0.998282
0.997778
0.996072
0.99631
0.993459
0.9895
0.993058
0.98984
0.99434
0.996863
0.997009
0.994531
0.990093
0.982457
0.981361
0.984054
0.985002
0.973822
0.961018
0.972656
0.96685
0.941678
0.944171
0.943974
0.902829
0.835497
0.737339
0.735743
0.611481
0.621332
0.612094
0.618289
0.612872
0.611393
0.739401
0.799247
0.851127
0.903968
0.902813
0.841893
0.838593
0.844144
0.736764
0.620393
0.85239
0.912996
0.948464
0.969672
0.971826
0.983715
0.990719
0.994819
0.99715
0.996328
0.997961
0.998535
0.997253
0.994993
0.993382
0.988625
0.981056
0.96931
0.949976
0.950654
0.911714
0.842423
0.846364
0.914215
0.907588
0.948037
0.97119
0.983922
0.990967
0.99107
0.995031
0.997299
0.998559
0.999214
0.998907
0.999361
0.999559
0.999453
0.999048
0.998464
0.997935
0.996276
0.99335
0.98854
0.980982
0.98396
0.971233
0.948089
0.907679
0.841897
0.841695
0.846697
0.914552
0.950075
0.969251
0.971843
0.983714
0.990688
0.994774
0.997108
0.996976
0.998276
0.999073
0.998852
0.998262
0.997757
0.996755
0.994297
0.994448
0.990038
0.98239
0.969676
0.948532
0.950595
0.911521
0.842327
0.683212
0.759402
0.852607
0.913096
0.904327
0.941802
0.966833
0.981288
0.989717
0.993045
0.989438
0.984916
0.984037
0.972735
0.961077
0.944384
0.90309
0.842161
0.85164
0.799695
0.745996
0.739633
0.737674
0.835782
0.902998
0.944042
0.945173
0.969307
0.982223
0.9901
0.994516
0.997059
0.998444
0.999212
0.999591
0.999793
0.999712
0.999474
0.999101
0.998869
0.998352
0.99704
0.994508
0.98958
0.980901
0.965871
0.940736
0.898633
0.903514
0.834772
0.736124
0.612503
0.685165
0.75727
0.838866
0.832383
0.74653
0.74195
0.833025
0.898314
0.926522
0.9472
0.969529
0.983093
0.990725
0.993742
0.990679
0.983447
0.970574
0.94958
0.944908
0.968213
0.982082
0.990065
0.994721
0.99725
0.998565
0.999258
0.999608
0.999459
0.998992
0.998016
0.996606
0.994839
0.994909
0.990626
0.982524
0.968103
0.94343
0.904994
0.903251
0.834384
0.737005
0.613051
0.618313
0.454548
0.624963
0.69073
0.7574
0.842382
0.902561
0.943877
0.967824
0.982253
0.990529
0.995092
0.997436
0.998689
0.999222
0.999658
0.999819
0.99976
0.999034
0.999018
0.999425
0.999736
0.999861
0.999932
0.999948
0.999937
0.999744
0.999819
0.999916
0.999964
1.00001
1.00005
1.00004
1.00006
1.0001
1.00009
1.0001
1.00009
1.0001
1.00011
1.00011
1.0001
1.0001
1.00008
1.00005
1.00007
1.00004
1.00004
1.00004
1.00004
1.00003
1.00003
1.00008
1.00003
1.00005
1.00001
0.999973
0.999929
0.999802
0.999709
0.999709
0.999832
0.999929
0.999919
0.999847
0.999772
0.999327
0.999524
0.99972
0.999686
0.999558
0.999146
0.998333
0.996741
0.995266
0.990689
0.982469
0.968265
0.944087
0.904543
0.842247
0.750954
0.622655
0.617816
0.467271
0.543915
0.637979
0.762381
0.846567
0.905271
0.944321
0.96859
0.982849
0.990922
0.995341
0.997681
0.998881
0.999504
0.999505
0.999476
0.999476
0.99979
0.999902
0.999938
0.999915
0.999956
0.99995
0.999978
0.999979
0.999978
0.999973
0.999949
0.999966
0.999974
1.00001
1.00004
1.00004
1.00001
1.00003
1.00009
1.00011
1.00013
1.00015
1.00016
1.00016
1.00017
1.00016
1.00014
1.00013
1.00012
1.00011
1.00013
1.00009
1.00007
1
1.00003
1.00006
1.00003
0.999988
0.999934
0.999826
0.999659
0.999601
0.999304
0.999133
0.998633
0.999113
0.997945
0.995839
0.991514
0.984706
0.970379
0.950246
0.906431
0.85061
0.737433
0.631513
0.318853
0.380839
0.475257
0.634405
0.757964
0.846248
0.905923
0.944539
0.968762
0.983023
0.991082
0.99544
0.997719
0.998868
0.999425
0.999708
0.99986
0.999893
0.999748
0.999605
0.999622
0.999844
0.999938
0.999977
1.00001
1.00001
0.999985
0.999785
0.999674
0.999654
0.99985
0.999972
0.999971
0.999988
1.00001
0.999983
0.999993
1.00003
1.00008
1.00013
1.00016
1.00018
1.00019
1.00019
1.00019
1.00019
1.00013
1.00014
1.00014
1.00011
1.00011
1.0001
1.00003
0.999977
0.999859
0.999576
0.999016
0.997843
0.995071
0.986236
0.986201
0.959486
0.884677
0.699771
0.0792635
0.132913
0.203394
0.2965
0.456274
0.544647
0.655449
0.766549
0.848199
0.905154
0.943811
0.968303
0.98284
0.991038
0.995467
0.997773
0.998932
0.999482
0.999704
0.999869
0.999908
0.999862
0.999344
0.999436
0.999671
0.999841
0.999867
0.999944
0.999974
1.00001
1.00004
1.00009
1.00011
1.00013
1.00012
1.00009
1.00008
1.00008
1.00009
1.00012
1.00014
1.00015
1.00016
1.00015
1.00016
1.00017
1.00017
1.00017
1.00019
1.00021
1.00024
1.00023
1.00022
1.00021
1.0002
1.00019
1.00017
1.00015
1.00014
1.00017
1.00019
1.00019
1.00021
1.00023
1.00017
1.00021
1.00022
1.00018
1.0002
1.00017
1.00014
1.00013
1.00011
1.00011
1.0001
1.00012
1.00014
1.00018
1.00011
1.00008
1.00006
1.00009
1.0001
1.00011
1.00011
1.00006
1.00006
1.00005
1.0001
1.0001
1.00008
1.00008
1.00007
1.00007
1.00002
1.00003
1.00002
0.999996
1
1.00001
1.00005
1.00004
0.999963
0.999919
0.999982
1.00003
1.00004
0.999986
0.999978
0.999949
0.999929
0.999804
0.999878
1
0.999978
1.00001
1.00003
0.999976
0.999886
0.999742
0.999843
0.999932
0.999967
1.00001
1.00003
1.00002
1.00001
1.00001
1.00002
1.00005
1.00009
1.00013
1.00015
1.0002
1.00022
1.00021
1.00017
1.00021
1.00016
1.00017
1.00017
1.00015
1.00014
1.00011
1.00004
0.999982
0.999921
0.999969
0.999912
0.999696
0.999228
0.998193
0.995602
0.998226
0.995156
0.985641
0.956437
0.882499
0.697727
0.244627
0.332157
0.485863
0.634627
0.75558
0.843983
0.90474
0.944421
0.969025
0.983388
0.991375
0.995637
0.997846
0.99896
0.999513
0.999785
0.999837
0.999837
0.999783
0.9999
0.999903
0.999854
0.999908
0.999957
0.999971
0.999986
0.999973
1.00002
1
0.99996
0.999886
0.999754
0.99946
0.998962
0.998007
0.996289
0.992873
0.994635
0.989448
0.981955
0.96604
0.946136
0.901666
0.850091
0.7472
0.632317
0.473436
0.306509
0.376676
0.483146
0.638465
0.763395
0.84902
0.906579
0.944472
0.968512
0.982809
0.990961
0.995412
0.997762
0.998958
0.999528
0.999746
0.999843
0.999334
0.999043
0.999094
0.999623
0.999833
0.999876
0.999787
0.999841
0.999917
0.999861
0.999707
0.999549
0.999383
0.999165
0.998153
0.998615
0.997077
0.994428
0.989015
0.981385
0.9654
0.945442
0.901281
0.850479
0.748296
0.634959
0.476318
0.313504
0.291549
0.464546
0.475683
0.643318
0.765013
0.849256
0.906789
0.944902
0.968933
0.983135
0.991176
0.995537
0.997814
0.998954
0.999464
0.999629
0.999123
0.998051
0.995831
0.991644
0.983755
0.970119
0.946673
0.90919
0.848548
0.760797
0.638974
0.482166
0.477302
0.308623
0.141869
0.205791
0.315844
0.461219
0.626238
0.699616
0.774431
0.849232
0.905479
0.944238
0.968612
0.983017
0.991147
0.995511
0.997745
0.998846
0.999232
0.99961
0.999686
0.999772
0.999908
0.99994
0.999966
0.999937
0.999668
0.999446
0.999446
0.999676
0.999886
0.999984
1.00003
1.00009
1.00012
1.00014
1.00014
1.00013
1.0001
1.00008
1.00009
1.00009
1.00012
1.00015
1.00016
1.00019
1.0002
1.00018
1.00021
1.00022
1.00022
1.00022
1.00023
1.00025
1.00025
1.00024
1.00023
1.00023
1.00021
1.0002
1.00017
1.0002
1.00021
1.00023
1.00023
1.00024
1.00021
1.00019
1.00018
1.00016
1.00018
1.00014
1.00008
1.00003
1.00001
1
0.999961
0.999881
0.999724
0.999375
0.99847
0.995821
0.987027
0.959623
0.878216
0.696793
0.372023
0.475163
0.637434
0.762531
0.846879
0.90593
0.932328
0.953769
0.973301
0.985452
0.9923
0.994593
0.997034
0.998546
0.999242
0.999461
0.999319
0.999232
0.999498
0.999751
0.999768
0.999902
0.99995
0.999956
0.999856
0.999894
0.999906
0.999966
1
1.00004
1.00005
1.0001
1.0001
1.00013
1.00011
1.00013
1.00012
1.00013
1.00015
1.00015
1.00017
1.00019
1.00019
1.00022
1.00024
1.00025
1.00023
1.00025
1.00026
1.00026
1.00026
1.00028
1.00028
1.00028
1.00027
1.00027
1.00025
1.00022
1.00024
1.00025
1.00026
1.00026
1.00023
1.00023
1.00021
1.00021
1.00017
1.0001
1.00004
1.00001
0.999973
0.999931
0.999858
0.999714
0.999502
0.999434
0.999693
0.999821
0.999789
0.999584
0.999412
0.998934
0.998366
0.996947
0.995013
0.990528
0.984146
0.969861
0.94911
0.905522
0.847574
0.740942
0.633154
0.636219
0.756895
0.844833
0.882542
0.913109
0.947509
0.970221
0.983771
0.991432
0.995492
0.996914
0.998369
0.999221
0.999643
0.999846
0.999932
0.999961
0.999933
0.999706
0.999041
0.998983
0.999545
0.99985
0.999966
0.999999
1.00006
1.0001
1.00012
1.00014
1.00014
1.00015
1.00015
1.00016
1.00017
1.00018
1.00021
1.00021
1.00022
1.00022
1.00024
1.00026
1.00026
1.00029
1.0003
1.00031
1.00029
1.00032
1.00034
1.00033
1.00032
1.00032
1.00033
1.00034
1.00033
1.00031
1.0003
1.00029
1.00028
1.00028
1.00029
1.00028
1.00027
1.00028
1.00031
1.0003
1.00029
1.00029
1.00029
1.00029
1.0003
1.00031
1.00029
1.00025
1.00019
1.00012
1.00005
1.00002
0.999982
0.999996
0.999985
0.999961
0.999935
0.999869
0.999794
0.999632
0.999409
0.999276
0.999341
0.999554
0.999606
0.999269
0.998835
0.997628
0.995727
0.991335
0.984488
0.969703
0.94699
0.901189
0.841316
0.734551
0.634695
0.109862
0.204059
0.305952
0.451074
0.62985
0.647383
0.770338
0.850534
0.906914
0.945169
0.969184
0.983323
0.991296
0.995593
0.997825
0.998938
0.999466
0.999552
0.999046
0.997962
0.995817
0.991541
0.983976
0.969839
0.947447
0.908354
0.853125
0.767054
0.646605
0.631066
0.467297
0.311407
0.19721
0.113441
0.63188
0.699809
0.768237
0.846166
0.904309
0.930152
0.952977
0.972533
0.985091
0.992169
0.994453
0.997066
0.998608
0.999362
0.999726
0.99987
0.999852
0.999883
0.999806
0.999834
0.999923
0.999906
0.999759
0.999854
0.999927
0.999973
1.00001
1.00006
1.00008
1.00012
1.00013
1.00016
1.00016
1.00017
1.00018
1.00019
1.0002
1.00021
1.00023
1.00023
1.00025
1.00025
1.00027
1.00028
1.00029
1.00032
1.00033
1.00032
1.00035
1.00036
1.00037
1.00038
1.00039
1.00039
1.00043
1.00045
1.00041
1.00034
1.00031
1.00028
1.00033
1.00037
1.0004
1.0004
1.0004
1.0004
1.00038
1.00037
1.00037
1.00037
1.00035
1.00033
1.00032
1.0003
1.0003
1.00032
1.00033
1.00034
1.00033
1.00033
1.00033
1.00034
1.00037
1.00035
1.00037
1.00036
1.00035
1.00033
1.00022
1.00014
1.00007
1.00004
1.00001
0.999996
0.999981
0.999962
0.99992
0.999837
0.999653
0.999293
0.999276
0.999276
0.999644
0.999778
0.999697
0.999348
0.998696
0.997396
0.99509
0.9908
0.983336
0.969445
0.945896
0.903917
0.841002
0.743622
0.626072
0.817799
0.855953
0.908784
0.946349
0.962478
0.975998
0.986882
0.990616
0.994872
0.997515
0.998853
0.999494
0.999744
0.999854
0.999721
0.999499
0.999649
0.999806
0.999823
0.999911
0.999977
0.999983
1.00001
1.00002
1.00003
1.00009
1.0001
1.00013
1.00014
1.00015
1.00015
1.00016
1.00017
1.00018
1.00018
1.00019
1.0002
1.00021
1.00023
1.00025
1.00025
1.00026
1.00029
1.0003
1.00033
1.00033
1.00033
1.00035
1.00037
1.00043
1.0005
1.00065
1.00078
1.00067
1.00054
1.00061
1.00066
1.00061
1.00037
1.00029
1.00012
1.00005
1.00006
1.00008
1.0001
1.0001
1.00011
1.0001
1.0001
1.00009
1.00008
1.00008
1.00008
1.00008
1.00009
1.0001
1.00012
1.00013
1.00015
1.00017
1.00019
1.0002
1.00022
1.00023
1.00025
1.00026
1.00028
1.00029
1.0003
1.00031
1.00031
1.00031
1.0003
1.00027
1.00029
1.00024
1.00029
1.00027
1.00021
1.00021
1.00025
1.00023
1.00028
1.00025
1.00023
1.00022
1.00021
1.00017
1.0002
1.0002
1.00017
1.00019
1.00016
1.00016
1.00021
1.00023
1.00026
1.00029
1.00029
1.00034
1.00042
1.0004
1.00037
1.0003
1.00026
1.00018
1.00016
1.00014
1.00011
1.0001
1.00009
1.00007
1.00002
1
0.999994
1.00006
1.00014
1.00009
1.00005
1.00011
1.00014
1.00011
1.0002
1.00021
1.00023
1.00024
1.0003
1.00031
1.00032
1.00033
1.00034
1.00035
1.00034
1.00035
1.00036
1.00037
1.00038
1.00039
1.00039
1.00039
1.00038
1.00038
1.00037
1.00036
1.00035
1.00034
1.00032
1.00031
1.0003
1.00028
1.00026
1.00025
1.00025
1.00025
1.00026
1.00028
1.00031
1.00034
1.00037
1.00039
1.00041
1.00044
1.00045
1.00047
1.00048
1.00047
1.00052
1.0006
1.00039
1.00037
1.00017
1.00008
1.0001
1.00011
1.00012
1.00013
1.00014
1.00014
1.00014
1.00014
1.00013
1.00012
1.00011
1.0001
1.0001
1.00011
1.00012
1.00014
1.00016
1.00017
1.00019
1.00021
1.00023
1.00024
1.00026
1.00027
1.00029
1.0003
1.0003
1.00031
1.00031
1.0003
1.00027
1.00032
1.00028
1.00035
1.00032
1.00031
1.00028
1.00027
1.00025
1.00021
1.00018
1.00017
1.00015
1.00023
1.00016
1.00011
1.00013
1.00009
1.00014
1.00019
1.0002
1.0002
1.00018
1.0002
1.00019
1.00017
1.00021
1.00021
1.00023
1.00025
1.00023
1.0003
1.00026
1.00029
1.00036
1.00032
1.00031
1.00028
1.00024
1.00019
1.00015
1.0001
1.00008
1.00005
1.00001
1.00004
1.00009
1.00016
1.00014
1.00015
1.0001
1.00015
1.00019
1.00017
1.00017
1.0002
1.0002
1.00021
1.00028
1.00022
1.00019
1.00015
1.00018
1.0002
1.00022
1.00019
1.00024
1.00022
1.00018
1.00013
1.00012
1.00016
1.00018
1.0002
1.00019
1.00029
1.00017
1.00016
1.00022
1.00023
1.00027
1.00029
1.00039
1.00043
1.00031
1.00033
1.00035
1.00045
1.00042
1.00042
1.00044
1.00047
1.00049
1.0005
1.00047
1.00045
1.00049
1.00052
1.00042
1.00049
1.00043
1.00042
1.00033
1.00034
1.00038
1.00044
1.00051
1.00054
1.00057
1.00055
1.0006
1.0006
1.00057
1.0005
1.00057
1.00054
1.00051
1.00038
1.00035
1.00034
1.00032
1.00027
1.00025
1.00023
1.00021
1.00022
1.00021
1.0002
1.00032
1.00025
1.00032
1.00035
1.00038
1.00029
1.00024
1.00021
1.00021
1.00019
1.00014
1.00025
1.00028
1.00029
1.00026
1.00022
1.00015
1.00014
1.00018
1.00022
1.00029
1.00036
1.00034
1.00029
1.0003
1.00031
1.00033
1.00035
1.00033
1.00037
1.00042
1.00043
1.00037
1.00027
1.00024
1.00031
1.00038
1.00046
1.00034
1.00039
1.00049
1.00053
1.00047
1.00042
1.00046
1.00051
1.00047
1.00051
1.00057
1.00061
1.00057
1.00054
1.00041
1.00046
1.00058
1.0006
1.00063
1.00068
1.0006
1.00058
1.00065
1.00061
1.00055
1.00052
1.00055
1.0006
1.00055
1.00058
1.00062
1.00064
1.00072
1.00069
1.00074
1.00066
1.00068
1.00076
1.0008
1.00075
1.00071
1.00075
1.00072
1.00069
1.00064
1.00061
1.0005
1.00053
1.0005
1.00057
1.00054
1.00065
1.00069
1.00058
1.00061
1.00065
1.00075
1.00081
1.00072
1.0007
1.00078
1.00083
1.00075
1.00076
1.00085
1.00088
1.00084
1.00079
1.00083
1.00086
1.00091
1.00094
1.00098
1.00102
1.00107
1.00111
1.00114
1.00109
1.00105
1.001
1.00095
1.0009
1.0008
1.00079
1.00089
1.00095
1.00084
1.00085
1.00089
1.00089
1.001
1.00106
1.00095
1.00094
1.00098
1.001
1.00112
1.00117
1.00105
1.00101
1.00105
1.0011
1.00122
1.00118
1.00114
1.00118
1.0012
1.00122
1.00123
1.00131
1.00129
1.00126
1.00123
1.00108
1.00114
1.00128
1.00137
1.0013
1.00123
1.00116
1.00109
1.00101
1.00094
1.00087
1.0008
1.00074
1.0007
1.00065
1.00059
1.00056
1.00052
1.00045
1.00041
1.00034
1.00039
1.00043
1.00047
1.0005
1.00054
1.00063
1.00058
1.00053
1.00049
1.00066
1.00072
1.00079
1.00088
1.00097
1.00106
1.00115
1.00123
1.00129
1.00135
1.00138
1.00144
1.00144
1.00115
1.00111
1.00107
1.00103
1.00098
1.00093
1.00088
1.00082
1.00077
1.00072
1.00067
1.00062
1.00119
1.00112
1.00116
1.00124
1.00136
1.00131
1.00125
1.00118
1.00113
1.00108
1.00103
1.00097
1.00092
1.00087
1.00082
1.00078
1.00073
1.00062
1.00067
1.00068
1.0008
1.00085
1.00073
1.00071
1.00076
1.00077
1.00089
1.00089
1.00093
1.00096
1.001
1.00103
1.00106
1.00102
1.00098
1.00094
1.00082
1.00081
1.00085
1.00086
1.00091
1.0009
1.00094
1.00094
1.00098
1.00109
1.00106
1.00108
1.0011
1.00112
1.00112
1.00121
1.00119
1.00116
1.00113
1.00101
1.00102
1.00098
1.00098
1.00093
1.00088
1.00084
1.00079
1.00074
1.00068
1.00063
1.00058
1.00068
1.00064
1.00071
1.00074
1.0008
1.00079
1.00088
1.00086
1.00093
1.00097
1.00105
1.00099
1.00106
1.00112
1.0012
1.00112
1.00119
1.00126
1.00131
1.00125
1.00103
1.00108
1.0013
1.00134
1.00138
1.00146
1.0015
1.00119
1.00123
1.00126
1.00118
1.00138
1.00152
1.00146
1.00132
1.00129
1.0011
1.00104
1.00105
1.00108
1.00111
1.00112
1.00138
1.00134
1.00112
1.00114
1.00135
1.0003
1.00028
1.00027
1.00026
1.00025
1.00014
1.00013
1.00022
1.00008
1.00008
1.0001
1.00007
1.00007
1.00009
1.00008
1.00009
1.00021
1.00009
1.00012
1.00018
1.00023
1.00013
1.00015
1.00016
1.00017
1.00011
1.00021
1.00016
1.00006
1.0001
1.00012
1.0002
1.00023
1.00019
1.00024
1.00015
1.00012
1.00019
1.00019
1.00018
1.00023
1.00021
1.00012
1.0001
1.00017
1.00017
1.00013
1.00014
1.00015
1.00013
1.00016
1.00017
1.0001
1.00012
1.00012
1.0001
1.00007
1
1.00012
1.00004
1.00021
1.00026
1.00028
1.00031
1.00033
1.00036
1.00038
1.00039
1.0004
1.0004
1.00041
1.00041
1.00041
1.0004
1.00039
1.00038
1.00036
1.00035
1.00033
1.00032
1.0003
1.00028
1.00026
1.00024
1.00022
1.0002
1.00018
1.00017
1.00017
1.00018
1.00018
1.00019
1.0002
1.00019
1.00017
1.00015
1.00012
1.00009
1.00008
1.0001
1.00012
1.00013
1.00012
1.00013
1.00009
1.00006
1.00004
1.00005
1.00008
1.00009
1.00008
1.00004
1.00005
1.00005
1.00003
1.00001
0.999976
0.999985
0.999906
0.999903
0.999873
0.999707
0.999259
0.999289
0.999724
0.999956
0.999788
0.999749
0.999881
0.999777
0.999827
0.999898
0.99984
0.999874
0.99983
0.999821
0.999888
0.999929
0.999918
0.999866
0.999922
0.999925
0.999896
0.999841
0.999922
0.999934
0.999924
0.999895
0.999708
0.999397
0.999636
0.99932
0.998821
0.998821
0.999122
0.999628
0.999839
0.99984
0.99984
0.999909
0.999949
0.99998
0.999988
0.999978
0.999943
0.999914
0.999966
1
1.00011
1.00026
1.00054
1.00066
1.0007
1.00027
1.00003
1.00014
1.00009
1.00003
1.00004
1.00003
1.00005
1.00005
1.00007
1.00011
1.00012
1.00011
1.00008
1.00004
1.00003
1.00002
1
0.999991
0.999948
0.999864
0.999725
0.999405
0.999663
0.999173
0.999003
0.999345
0.191475
0.304179
0.29963
0.465636
0.632158
0.762485
0.84808
0.90749
0.906731
0.946868
0.969999
0.983812
0.991552
0.995769
0.997784
0.998748
0.99905
0.998009
0.995828
0.99143
0.983255
0.968968
0.944725
0.906683
0.851107
0.847895
0.766266
0.768038
0.759343
0.631608
0.47038
0.309899
0.194986
0.20698
0.195853
1.0008
1.00072
1.0005
1.00034
1.00025
1.00025
1.00043
1.00059
1.00053
1.00056
1.00033
1.00048
1.00041
1.00032
1.00024
1.00036
1.00041
1.00025
1.00027
1.00032
1.00031
1.00032
1.00032
1.00032
1.00048
1.00041
1.0003
1.00045
1.00032
1.00031
1.00041
1.00037
1.00032
1.00028
1.00015
1.00013
1.00008
1.00007
1.00006
1.00006
1.00006
1.00003
1.00012
1.00008
1.00002
1.00007
1.00011
1.00008
1.00017
1.00018
1.00012
1.00008
1.00005
1.00002
1.00002
1.00001
1.00001
0.999994
0.999992
0.999974
0.999965
0.99992
0.999873
0.999773
0.999741
0.376334
0.483088
0.639057
0.763972
0.849199
0.90653
0.944327
0.968319
0.982585
0.990727
0.995187
0.997563
0.998792
0.999398
0.999636
0.999334
0.998778
0.997609
0.995304
0.99093
0.982897