/*--------------------------------*- C++ -*----------------------------------*\
  =========                 |
  \\      /  F ield         | OpenFOAM: The Open Source CFD Toolbox
   \\    /   O peration     | Website:  https://openfoam.org
    \\  /    A nd           | Version:  7
     \\/     M anipulation  |
\*---------------------------------------------------------------------------*/
FoamFile
{
    version     2.0;
    format      ascii;
    class       surfaceScalarField;
    location    "19";
    object      alphaPhi0.water;
}
// * * * * * * * * * * * * * * * * * * * * * * * * * * * * * * * * * * * * * //

dimensions      [0 3 -1 0 0 0 0];

internalField   nonuniform List<scalar> 
42590
(
-0.0618001
0.000139513
-0.0508519
-0.0603618
0.0488146
-0.0108603
-0.0968667
-0.00288281
0.0183631
-0.122325
0.00778145
0.0146251
-0.117611
-0.00473387
0.00974135
-0.149395
-0.00409915
0.0048106
-0.108723
1.82371e-05
0.00896211
-0.105912
-0.0021375
0.0057393
-0.0853045
0.00382475
-0.00087989
-0.046037
0.000251203
-0.00673032
-0.0481964
-0.00030562
-0.00962839
-0.0849076
0.00352176
-0.0051413
-0.10478
-0.00249021
-0.00996958
-0.107239
3.02113e-06
-0.0147084
-0.147375
-0.00406642
-0.0183416
-0.116134
-0.0047205
-0.0484863
-0.120956
0.00774869
0.0611304
-0.0108609
-0.0959176
-0.0028346
-0.0504161
-0.0597266
-9.59228e-05
-0.0672992
0.00611875
-0.0679052
0.00609795
0.00936998
0.000117718
-0.0801956
0.00280428
0.0221267
-0.106903
-0.00271695
0.0158386
-0.121909
0.00587755
0.0144457
-0.111683
-0.00452965
0.0115003
-0.142974
-0.00346816
0.00762362
-0.105639
0.00079806
0.0087365
-0.104315
-0.00270389
0.00355459
-0.0834054
0.00328794
-0.000800412
-0.0429763
0.00129566
-0.00456198
-0.0451313
0.000697716
-0.00946182
-0.0829911
0.00298835
-0.00793713
-0.103243
-0.00305586
-0.0117052
-0.104241
0.000775483
-0.0145
-0.141139
-0.00343517
-0.0157845
-0.110336
-0.0045095
-0.0220052
-0.120567
0.00583699
-0.00940894
-0.105882
-0.00262821
-0.0794903
0.00290132
-0.000115147
0.00582558
-0.0856587
0.000460765
0.00577458
-0.0863941
0.000311387
0.0135485
-0.11218
-0.00249187
0.011196
-0.123212
0.0036607
0.0123527
-0.10956
-0.00327549
0.0117205
-0.139405
-0.00293127
0.00822997
-0.103139
0.000995178
0.00859209
-0.102036
-0.00263542
0.00313397
-0.0812112
0.00326922
-0.000738999
-0.0407064
0.00160456
-0.00412929
-0.0427425
0.00100331
-0.00931947
-0.0807676
0.00297237
-0.00853683
-0.101026
-0.00299315
-0.0119066
-0.10184
0.000973263
-0.0124229
-0.137711
-0.00290536
-0.0111764
-0.108315
-0.00326324
-0.0134634
-0.121906
0.00363097
-0.11115
-0.00236578
-0.00409615
0.00940257
-0.114082
-0.00236973
-0.000114735
-0.0888639
-0.000773264
0.00404207
-0.0896193
-0.000928724
0.00949114
-0.115101
-0.00252484
0.00835918
-0.124312
0.00223617
0.0103319
-0.108947
-0.00258145
0.011173
-0.137608
-0.0026322
0.00822874
-0.10129
0.00109995
0.00847519
-0.0998346
-0.0024422
0.00307627
-0.0791061
0.00329902
-0.000689971
-0.0386831
0.00174494
-0.00403374
-0.0405429
0.00114623
-0.00917051
-0.0786166
0.00299162
-0.00852366
-0.0988672
-0.00280007
-0.0113623
-0.100065
0.00106862
-0.0104074
-0.136044
-0.00261663
-0.00835906
-0.107782
-0.00257645
-0.123062
0.00220329
-0.00744714
0.00685777
-0.1238
0.00133291
-0.00329088
-0.115726
-0.00250911
-0.000112257
-0.0905665
-0.00147276
0.00323838
-0.0913347
-0.00163224
0.00753032
-0.116728
-0.00266115
0.00685811
-0.125011
0.00137485
0.00899957
-0.10883
-0.00225427
0.0106101
-0.136668
-0.0025448
0.00809104
-0.0999125
0.00114535
0.00835634
-0.0978559
-0.00223844
0.00310638
-0.077178
0.00332705
-0.000646951
-0.0367579
0.00183034
-0.00401978
-0.0384054
0.00123779
-0.00902176
-0.0766151
0.00300631
-0.00837393
-0.0969117
-0.00259804
-0.0107794
-0.0987577
0.00110221
-0.0090725
-0.135201
-0.00254305
-0.107739
-0.00225513
-0.00606714
0.00825284
-0.107809
-0.00211147
-0.00648691
-0.124199
0.00082224
-0.00291818
-0.116678
-0.00261252
-0.000111915
-0.0915125
-0.00185695
0.00285994
-0.0922883
-0.00201529
0.00657309
-0.117679
-0.00275808
0.00606346
-0.125377
0.000879307
0.00820127
-0.108862
-0.00210285
0.0102464
-0.136171
-0.00253729
0.00796596
-0.0987906
0.00116271
0.00822632
-0.0960444
-0.00206658
0.00315146
-0.075431
0.00333267
-0.000603624
-0.0348955
0.00189514
-0.00401644
-0.0362998
0.00131
-0.00884868
-0.0747807
0.00300326
-0.0082105
-0.0951304
-0.00241435
-0.0103825
-0.0976833
0.00110247
-0.134769
-0.00255757
-0.00774188
0.0100673
-0.13446
-0.00262884
-0.00562033
-0.107864
-0.00206298
-0.00595051
-0.124318
0.000453661
-0.00273116
-0.117185
-0.00270895
-0.000109847
-0.0920133
-0.0021173
0.00267496
-0.092792
-0.00227814
0.00603801
-0.118184
-0.00285402
0.00562966
-0.125488
0.00052314
0.00770463
-0.108887
-0.00204655
0.00996479
-0.135836
-0.00259032
0.0078282
-0.0978238
0.00117365
0.00807908
-0.0943976
-0.00189277
0.0031932
-0.0738753
0.00333479
-0.000553842
-0.033107
0.00196168
-0.00399577
-0.0342402
0.00138575
-0.00862051
-0.0731381
0.00298734
-0.00804196
-0.0934645
-0.00223878
-0.0967404
0.00108612
-0.00973833
0.0078203
-0.0958942
0.00107633
-0.00726991
-0.134228
-0.00269524
-0.00525303
-0.107851
-0.00202633
-0.00546904
-0.124143
4.49473e-05
-0.00256587
-0.117279
-0.00280505
-0.000108604
-0.0921084
-0.00235913
0.00251661
-0.092909
-0.00250549
0.00557086
-0.118296
-0.00293845
0.00526594
-0.125324
0.000145614
0.00726472
-0.108876
-0.00200571
0.00968666
-0.135608
-0.00264504
0.00766046
-0.0969833
0.0011895
0.00786335
-0.0929074
-0.00168814
0.00321444
-0.0725644
0.00334279
-0.000503062
-0.0314447
0.00205888
-0.00395626
-0.0322725
0.00148932
-0.00832568
-0.0717402
0.00297687
-0.0919414
-0.00202348
-0.00751013
0.00792371
-0.0906146
-0.00173508
-0.00927541
-0.0951917
0.00106679
-0.00664485
-0.134129
-0.00272437
-0.00471029
-0.107793
-0.00198791
-0.00479362
-0.123693
-0.000361749
-0.0023245
-0.116868
-0.0028766
-0.000107428
-0.0916901
-0.00263274
0.00226454
-0.0924971
-0.00278145
0.0048817
-0.117907
-0.00300242
0.00473331
-0.124885
-0.000286736
0.00666309
-0.108849
-0.00195295
0.00925929
-0.135547
-0.00265161
0.00738677
-0.0963102
0.00120314
0.00753336
-0.0916437
-0.00140535
0.00317438
-0.071572
0.00337144
-0.00045345
-0.0300073
0.00219456
-0.0038588
-0.0304907
0.00162764
-0.0706535
0.00298359
-0.00733598
0.00366369
-0.0699944
0.00301857
-0.00703864
-0.0895885
-0.00131842
-0.00853831
-0.0947459
0.00105803
-0.00560815
-0.134374
-0.00267938
-0.00371129
-0.107859
-0.00182689
-0.00344995
-0.122943
-0.00100645
-0.00179202
-0.115592
-0.00292994
-0.000111993
-0.0902982
-0.00306966
0.00171735
-0.0911158
-0.00320852
0.00351487
-0.116664
-0.00303667
0.00373014
-0.124172
-0.000924722
0.00563474
-0.108966
-0.00178449
0.00855277
-0.135874
-0.00258706
0.00695111
-0.0959191
0.00121411
0.00701752
-0.0907093
-0.000996078
0.00301996
-0.0709945
0.00342472
-0.000409716
-0.0290636
0.00249002
-0.0291447
0.00191239
-0.00326291
0.000376834
-0.0286896
0.00243579
-0.00651536
-0.0698493
0.00311234
-0.00640183
-0.0890045
-0.000692724
-0.00737337
-0.0948224
0.00105189
-0.00378783
-0.135481
-0.00247301
-0.00184719
-0.108359
-0.00143652
-0.000783859
-0.121878
-0.00212403
-0.000626681
-0.112823
-0.00292316
-0.000113947
-0.086981
-0.00382771
0.000521807
-0.0877913
-0.00395814
0.000790836
-0.113928
-0.0030019
0.00183667
-0.123165
-0.00204882
0.00381383
-0.109554
-0.00138552
0.00740757
-0.137102
-0.00236074
0.00634374
-0.0960871
0.00123523
0.00624231
-0.0902247
-0.000379073
0.00263502
-0.0709065
0.00352367
-0.0290713
0.00302329
-0.000361576
-0.00193554
-0.0306894
0.00391929
-0.00254475
-0.0298298
0.00332704
-0.00536649
-0.0703398
0.00331661
-0.00579526
-0.0887712
0.000199448
-0.0058894
-0.0958508
0.00112624
-0.000751778
-0.13863
-0.00198418
0.00168712
-0.110135
-0.00065875
0.00439473
-0.120537
-0.00404388
0.00156282
-0.107297
-0.00269049
-0.000105278
-0.0802617
-0.00504858
-0.00167994
-0.081044
-0.00517034
-0.00446131
-0.108412
-0.00273204
-0.00174406
-0.121897
-0.003982
0.000741408
-0.111437
-0.000598954
0.00590921
-0.14042
-0.00184517
0.00575484
-0.0972343
0.00130465
0.00510952
-0.090079
0.000503313
-0.0714643
0.00373546
6.44639e-05
-0.00336348
-0.0718593
0.00369726
-0.000378858
-0.0359666
0.00572311
-0.000722803
-0.0346113
0.00512918
-0.00360925
-0.0707213
0.00327163
-0.00672117
-0.086629
0.000972864
-0.00436575
-0.0999763
0.00177372
0.0038558
-0.145863
-0.000982541
0.00747232
-0.114642
0.000894804
0.0138796
-0.119811
-0.00712928
0.00563378
-0.0967915
-0.00225575
-8.34241e-05
-0.0674356
-0.00710597
-0.00577267
-0.0681259
-0.0072261
-0.0140529
-0.0978481
-0.00228054
-0.00759896
-0.121247
-0.00709955
-0.00391272
-0.116114
0.000994069
0.00439342
-0.147903
-0.00081895
0.00672412
-0.101515
0.00195362
-0.0879774
0.00126122
0.00145313
-0.0219943
-0.0661119
-0.00132142
-0.0116653
-0.0585999
-0.000140316
-0.000402077
-0.0595275
0.0123024
0.010907
-0.0574734
0.0115586
-0.00166388
-0.0576863
-0.000462374
-0.0217187
-0.0650343
-0.00153763
0.000839822
-0.128378
0.00584866
0.00897289
-0.153647
-0.000343632
0.0121288
-0.119178
0.00138373
0.0399301
-0.137355
-0.0102534
0.00832033
-0.00202956
-0.0631489
-3.6716e-05
-0.00918114
-0.0498946
-0.00844023
-0.05043
-0.00928995
-0.0403888
-0.063849
-0.00204757
-0.0123003
-0.139102
-0.0102304
-0.00906938
-0.120835
0.00149338
-0.000850511
-0.155972
-0.000144585
-0.130483
0.0061256
-0.0178927
0.0139421
-0.131126
0.00459835
0.000899104
0.0452417
0.00357644
-0.0676081
0.0370017
0.0043493
-0.0491857
0.00873462
-0.0424698
-0.0640506
0.0216648
0.00784391
-0.00134425
-0.00620483
-0.0730984
0.0189076
-0.002307
-0.00237058
0.0152079
-0.0817882
0.00338466
-0.0611444
0.0670564
-0.0810418
-0.000321119
0.0176976
-0.000376541
0.0166437
-0.00880855
-0.0650043
0.0159688
0.0362727
-0.0009532
-0.0482067
0.00407948
-0.044467
-0.04198
0.0175542
-0.0663864
0.00341418
0.0137724
-0.128912
0.00432001
0.0135819
-0.152218
-0.00123275
0.00796309
-0.112891
-0.000664326
-0.00941923
-0.117095
-0.00287304
8.94232e-05
-0.176577
-0.00301529
0.170092
0.0096556
-0.178509
0.171905
-0.00295335
-0.00801695
-0.118699
-0.00272619
-0.0136815
-0.114554
-0.000612995
-0.154652
-0.0010553
-0.0238233
0.0209262
-0.148865
-0.00288433
-0.140944
0.00120562
-0.0217157
0.0321985
-0.150266
-0.00115553
-0.00888565
-0.0942837
-0.000331374
0.00450972
-0.0818584
0.00732299
-0.000179231
-0.0897841
0.0134355
0.0788849
-0.0876669
-0.00451947
0.0131275
-0.00354004
0.0171019
0.00227305
-0.059962
0.00594541
0.0149793
-0.0803044
0.00121432
0.0235864
-0.138507
0.000991649
0.0207946
-0.146402
-0.00301979
0.00779193
-0.096979
-0.00290621
-0.000698063
-0.0989252
-0.00967632
0.000195503
-0.15988
-0.0175842
0.000996878
-0.161731
-0.017573
-0.00775246
-0.100355
-0.00959018
-0.0984674
-0.00291014
-0.0384827
0.00679839
-0.0613265
-0.00545336
-0.150842
-0.00430435
-0.0363477
0.00482195
-0.117291
-0.0020198
-0.0334144
-0.151185
-0.00201071
-0.019506
-0.10587
-0.00231919
-0.0342229
-0.0869064
0.0197694
-0.00666142
0.0317945
-0.06282
0.00346652
0.0256857
-0.0437419
-1.7071e-05
0.0114115
1.90975e-06
-0.0323055
-0.0310893
-0.0249915
-0.031582
0.0337428
-0.00646204
0.00322582
-0.0615925
0.0803336
-0.0853435
0.0193032
0.0194545
0.00873579
0.00711804
0.0215027
-0.0924939
-0.000573718
0.0319702
-0.147609
-0.00136105
0.0382262
-0.148266
-0.00438759
0.00684759
-0.0602297
-0.00536805
-0.006279
-0.07179
-0.0140045
0.000348987
-0.141678
-0.0248234
0.00681395
-0.143329
-0.0248613
-0.0727261
-0.0140136
-0.108042
-0.0818785
0.0558705
-0.11625
0.0305123
-0.0174792
-0.0304532
0.052162
-0.112424
-0.0255296
-0.050966
-0.0987193
0.00194459
-0.0546476
-0.146002
-0.00149636
-0.0174281
-0.14158
-0.00150505
-0.0339515
-0.0974784
0.0271003
-0.0272647
-0.0690044
-0.000501711
0.000199184
-0.100799
0.0295948
0.0426833
0.0294841
0.0270139
-0.0989788
0.0112092
-0.0676169
0.050774
-0.000301034
0.00124564
0.0635381
-0.102179
-0.000733369
0.0339559
-0.0672904
0.0175998
-0.0958899
0.0269074
0.103853
-0.138679
0.0544122
-0.00198221
0.0332072
-0.00254352
0.0362894
-0.148445
-0.00224123
0.00535851
-0.00208512
-0.115245
0.0308645
0.106602
-0.0178016
-0.114302
0.0803457
-0.093684
0.00538984
0.0388163
0.0549275
-0.0379688
-0.011639
0.085165
-0.114746
-0.0328671
-0.0102693
0.115531
-0.103954
-0.0383299
0.00765624
-0.00185408
0.0258248
-0.0472707
-0.0916481
0.0109997
0.0305588
-0.0508643
-0.0967916
0.0524644
-0.110382
0.0146108
-0.00322904
-0.052599
0.000373362
-0.0148469
-0.0494836
0.0785709
-0.0143215
-0.0500812
0.0795826
-0.0148041
-0.0539837
0.0952866
-0.00346033
-0.150701
-0.000647255
0.0472866
-0.00223691
-0.000945956
-0.120571
-0.0269407
-0.0205777
-0.0203535
-0.0737263
-0.0723934
-0.00117422
-0.045727
-0.0848057
-0.132513
-0.00107187
-0.09177
-0.132269
-0.00233989
-0.0261514
0.03845
0.000585467
-0.104654
0.0809756
0.0399648
-0.0987346
-0.0483543
-0.0470602
-0.0838008
-0.00332121
0.0806169
0.00572414
-0.00836297
0.097452
-0.0697584
-0.108846
-0.126968
0.11719
-0.0891493
-0.0951394
0.0259981
-0.0487736
-0.00905007
-0.0826132
0.0139002
-0.0154974
-0.0109272
-0.0774827
-0.00168496
0.00889516
-0.0123401
-0.0852137
-0.0142997
0.030996
-0.0089644
-0.102565
-0.0317856
0.0567769
-0.0076386
-0.135753
-0.0531198
0.0930527
-0.00674568
-0.115825
-0.147171
0.130246
-0.00300071
-0.0891404
-0.160225
0.130366
0.00317581
-0.0118063
-0.130675
0.0463539
0.00698463
-0.0818274
0.0754897
-0.0324226
0.0269562
-0.0547283
-0.0432368
0.052132
-0.0359956
-0.0865188
0.0121862
0.00329642
0.0163126
-0.0937153
0.019968
-0.0346033
0.0218357
-0.087701
-0.000833724
-0.01957
0.0143914
-0.0550643
-0.0555431
0.0677281
-0.0448254
-0.0757531
0.00291629
0.00650857
0.0112632
-0.0899535
0.0034104
0.00154841
0.00924147
-0.105169
0.00364468
0.00732188
0.00425035
-0.0955717
0.00721795
-0.0271812
0.0103659
-0.0987782
0.00418798
-0.00845192
0.00746878
-0.101369
-0.000670315
-0.00125786
0.00451717
-0.102667
-0.00418528
0.00292682
0.00255499
-0.103072
-0.00633831
0.00546767
0.00127326
-0.10291
-0.00771707
0.00708955
0.00046525
-0.102374
-0.00864589
0.00818539
-7.6603e-05
-0.10164
-0.00937539
0.0089931
-0.000351782
-0.100745
-0.00999321
0.00967815
-0.000579458
-0.0997081
-0.0105786
0.0103235
-0.000781021
-0.0985126
-0.0111781
0.0109581
-0.000974095
-0.0971632
-0.0118115
0.011642
-0.00117812
-0.0956237
-0.0125064
0.0123843
-0.0014156
-0.0938437
-0.0132825
0.0132155
-0.0017109
-0.0917649
-0.0141694
0.0141619
-0.0020692
-0.0893116
-0.0151745
0.0152145
-0.00249115
-0.0864006
-0.0163191
0.0163872
-0.00297688
-0.082937
-0.0176245
0.0176925
-0.0035294
-0.0787909
-0.0191325
0.0191581
-0.00416969
-0.0738256
-0.0208766
0.0208538
-0.00494068
-0.0677814
-0.0230137
0.0229095
-0.00593881
-0.0604436
-0.0256776
0.0255724
-0.00723142
-0.0516949
-0.0289862
0.029047
-0.00880855
-0.0412443
-0.0321405
0.0321234
-0.0104325
-0.0315737
-0.0312159
0.0332
-0.0116575
-0.00759658
-0.0215966
0.00410116
-0.00648734
-0.0032889
-0.00299774
-0.00776564
0.0064411
-0.0353
0.0171675
0.0292467
-0.0143935
-0.0557671
0.0279561
0.0457031
-0.0531969
-0.0409898
0.0186507
0.0342613
-0.0676845
-0.0370072
0.00614522
-0.010121
-0.0248418
-0.026866
0.00778835
0.0069094
-0.0133966
0.0105655
-0.0196653
-0.00234689
-0.00830815
-0.0147838
-0.0171667
-0.0133519
0.00599197
-0.000953248
-0.010634
0.00877628
-0.0134939
0.00200198
0.0189049
-0.0151986
-0.010017
-0.00432103
0.0059529
0.0187755
-0.0058259
0.0317759
-0.0188365
-0.00698028
0.0378258
0.0324445
-0.0172458
-0.0212464
-0.0128564
0.00279361
0.040609
0.00728181
-0.0286966
-0.0041672
0.0524501
-0.00392324
0.000146467
-0.00526497
0.00119657
-0.00387621
0.00307584
0.00350689
0.00142305
0.00558163
-0.0143875
-0.00272609
0.00410316
0.00512875
-0.0029965
0.00995468
-0.0165183
0.000995884
0.0142632
0.0436666
-0.0384631
-0.0126916
0.0175876
0.0159942
0.00279898
0.00643114
0.0184424
-0.00839603
0.0122596
0.00523262
0.00689515
0.00544841
0.0157041
-0.0267507
0.0141807
0.00549372
-0.0024773
0.00355292
0.0131052
0.00360918
0.00961999
0.00412077
0.0117485
-0.00457762
0.0122507
0.0107744
-0.00985616
-0.0238327
0.0415236
0.0441091
-0.0154902
0.0864864
-0.0300407
-0.0123212
0.0548698
-0.00761868
0.0807541
0.0551256
0.0356497
-0.0172516
0.0552538
0.0229574
0.00487149
0.0585364
0.00875146
0.00513086
0.0630981
-0.0161592
0.00859528
0.0679481
-0.0362812
0.00982738
0.0722732
-0.045301
0.00975454
0.0764682
-0.0457228
0.00938271
0.0809817
-0.0417173
0.00821345
0.0852853
-0.0374033
0.00741882
0.0889705
-0.0337721
0.00707056
0.0919993
-0.0307558
0.00684908
0.0944762
-0.0282515
0.00664156
0.0964947
-0.0260499
0.00640707
0.0981245
-0.0241311
0.00618285
0.0994411
-0.0224596
0.00596947
0.100508
-0.0210087
0.00577334
0.101389
-0.0197497
0.00558811
0.102111
-0.0186409
0.00541349
0.102722
-0.0176676
0.0052474
0.10325
-0.0167964
0.005092
0.103697
-0.0159621
0.00493779
0.104069
-0.0151558
0.00479205
0.104365
-0.0143157
0.00464485
0.104588
-0.0133621
0.00449376
0.104741
-0.012171
0.00430025
0.104871
-0.0105206
0.00405122
0.105139
-0.00814358
0.00368879
0.106249
-0.00485812
0.0030758
0.109388
-0.00105942
0.00210645
0.11237
0.00199337
0.00224021
0.106599
0.00504372
0.00437057
0.0907217
0.0132118
0.00607442
0.0309217
0.00716997
0.15253
-0.15692
0.0294622
0.00585271
0.115544
0.0310389
0.00510991
0.0933431
0.040978
0.00118999
0.0577231
0.00456725
0.080769
-0.159245
0.00552374
0.102222
-0.179748
-0.00193143
0.0261622
-0.0654165
-0.0057004
0.136145
-0.122048
0.0567668
-0.0446987
0.125133
-0.0900266
0.0479192
0.0908887
-0.0162833
0.018739
0.0772759
-0.00999092
0.00930419
0.074894
0.000428339
0.000269962
0.0960753
0.00415886
-0.011442
0.0550293
-0.0316893
-0.0324783
0.0346221
0.00452706
0.044076
-0.121085
0.000522625
0.0440098
0.000347103
-0.0224486
-0.0335994
-0.0434373
-0.0215942
0.048444
-0.0327344
0.00385468
-0.0531652
0.0797412
0.0263551
-0.0973006
0.0396504
-0.0372051
-0.0462345
0.0910553
-0.101852
-5.2091e-05
0.0843921
-0.128969
-0.0030421
0.143099
-0.00136246
-0.12946
0.0721218
-0.00179912
-0.110335
-0.0537485
-0.00290336
0.117924
-0.0972071
0.0605368
-0.00415273
-0.0708696
-0.00180898
0.0350883
-0.0691156
0.0146725
-0.0760359
0.0367818
-0.0912307
-0.0768183
0.0582401
0.106919
-0.0932874
0.0548977
0.0379881
0.00547528
-0.0401181
0.0442629
0.0726829
0.044871
0.0207427
-0.00115044
0.00371782
-0.0206709
-0.118822
-0.0275041
0.149103
0.000802685
-0.0269581
-0.0546767
-0.0375811
-0.0554964
-0.0266881
-0.0575106
-0.0421579
0.00510089
0.0569911
-0.0360104
-0.0954984
0.108553
-0.0345522
-0.0914472
-0.0791468
0.00207456
-0.10445
-0.00207338
-0.11638
0.0851854
-0.0740281
0.000779953
-0.13837
-0.0670552
-0.00010053
-0.136106
-0.0523092
0.00127283
-0.127398
-0.0256433
0.0014371
-0.124514
0.00451798
0.00149061
-0.127076
0.033174
0.000379399
-0.133176
0.0632876
-0.000415729
-0.130059
0.0900547
-0.000123704
-0.106014
0.10365
0.00254831
-0.0209306
0.0400606
0.00521886
-0.0963635
-0.0429465
0.0824231
0.0359591
0.0669444
-0.0414683
-0.0263393
0.040505
0.00983253
-0.0970298
0.0462176
-0.0036857
0.0281643
-0.0378863
-0.00286475
-0.0196152
-0.0366645
-0.0782319
-0.00328682
0.0215783
0.0220576
-0.0972575
-0.00425872
0.026584
-0.0306485
-0.0380876
-0.0258276
-0.00269409
-0.0465073
0.00858436
0.0102911
-0.00301681
-0.0858189
0.0196217
0.0235749
-0.00388722
-0.0959058
0.021068
-0.00447686
-0.106845
0.0171298
-0.00464174
-0.103002
0.00796652
-0.00448263
-0.0282114
-0.0401869
-0.0319306
-0.00267123
-0.0367318
0.00556456
0.00568154
-0.00272575
-0.0432939
0.00450201
-0.00348626
0.00554591
-0.0464869
0.00208563
-0.00382718
0.00493398
-0.0478773
0.000751429
-0.00397903
0.00461714
-0.0482932
3.2877e-05
-0.00406539
0.00444752
-0.0480872
-0.000489368
-0.00411803
0.00440059
-0.047475
-0.000822322
-0.00421663
0.00442614
-0.0465913
-0.00106523
-0.0043157
0.00449671
-0.0455094
-0.00127611
-0.00440129
0.00459509
-0.0442818
-0.00146819
-0.00448804
0.00472842
-0.0429046
-0.00167019
-0.00455888
0.00485164
-0.0413718
-0.00187379
-0.00464463
0.00498534
-0.0396714
-0.00210019
-0.00471976
0.00511933
-0.0377586
-0.00235502
-0.00479833
0.00524049
-0.0356011
-0.00263552
-0.00487917
0.00535701
-0.0331521
-0.00294414
-0.00496605
0.00546118
-0.0303736
-0.00326519
-0.00508152
0.00556833
-0.0272114
-0.00359529
-0.00524449
0.00567761
-0.0235729
-0.00392505
-0.00548308
0.0057699
-0.0192825
-0.00425832
-0.00583336
0.00580145
-0.013967
-0.00460879
-0.00635136
0.00564472
-0.00696992
-0.00503774
-0.00706789
0.00510864
0.00306501
-0.00567349
-0.00827405
0.0039132
0.0152437
-0.00533275
-0.00977165
0.00292866
0.0225313
-0.000661343
-0.0086107
0.00199515
0.00770625
0.0155037
-0.00632991
0.005655
0.00713189
9.20751e-05
0.000473195
0.00216391
0.00567406
-0.000718591
-0.02778
0.0246279
-0.0024263
-0.0111791
0.00297126
0.0132429
0.00811011
0.0248476
0.0151768
0.0346735
0.0135376
0.0428705
0.0123281
0.0494988
0.0116651
0.0549517
0.0111372
0.0595202
0.0106612
0.0633821
0.0102335
0.0666632
0.00984027
0.0694577
0.00947603
0.071854
0.00913057
0.0739153
0.00879984
0.0757128
0.00848724
0.077301
0.0081804
0.0786956
0.00789334
0.0799303
0.00762037
0.0809849
0.00734683
0.0818221
0.00708934
0.0823277
0.00685559
0.0823031
0.00662238
0.0813697
0.00643115
0.0788703
0.00617474
0.0740212
0.00567407
0.0653078
0.00476078
0.00349872
-0.00125422
0.0288332
-0.0503286
0.0381101
-0.00525525
0.0266523
-0.00367351
-0.0570857
-0.0329156
0.117235
-0.0488815
-0.0443736
0.00347313
-0.0527537
0.00087117
0.00402205
-0.057008
-0.00233758
0.00276305
-0.0589191
-0.00409476
0.0020251
-0.0594652
-0.00510403
0.00158321
-0.0592281
-0.00571383
0.00135726
-0.0585694
-0.00613817
0.00126158
-0.0576505
-0.00646612
0.00123061
-0.0565451
-0.00674423
0.0012369
-0.0552916
-0.00701254
0.00127063
-0.0538868
-0.00727912
0.00131524
-0.0523269
-0.00757013
0.00136542
-0.0505712
-0.00789479
0.00141939
-0.0485836
-0.0082463
0.00146043
-0.0463348
-0.00862282
0.00149494
-0.0437652
-0.00903982
0.00150423
-0.0408283
-0.00949812
0.00147941
-0.0374608
-0.010016
0.00140333
-0.0335751
-0.0106169
0.00124661
-0.0289999
-0.0113582
0.000946989
-0.0234428
-0.0123086
0.000396042
-0.0165342
-0.0136292
-0.000352666
-0.00808501
-0.015555
-0.00117455
0.0033038
-0.0183367
-0.00282868
0.015026
-0.0147722
-0.00555961
0.00398246
0.00452499
0.000171392
0.00504396
-0.000986541
0.00383899
-0.00188963
0.00308934
0.00131717
0.00297229
-0.000456906
0.0144184
0.0105063
-0.000349291
-0.0232583
-0.0445492
0.0502216
-0.00205087
0.0108002
0.00316936
-0.0589014
0.0111814
-0.0724144
0.0715845
0.00399273
-0.0499508
-0.00836135
-0.0141006
-0.044953
0.0193644
-0.052453
0.0280811
0.0412023
-0.0171142
-0.0324706
-0.0365559
-0.0040654
0.00573061
-0.0352355
0.000263746
0.0275401
0.00334999
0.000311444
-0.0136844
-0.0217739
-7.45703e-05
-0.013373
0.000456741
-0.02088
0.0341343
-0.0220243
0.0110794
-0.00243212
-0.00351712
0.00426524
-0.0175514
-0.00521837
0.0182603
-0.0115803
-0.00372903
-0.00646751
0.00619605
0.0163324
-0.00427082
0.021493
-0.0105535
-0.0047378
0.0516347
0.0157843
-0.0353554
-0.0453941
0.0182588
0.0504874
0.0282778
-0.03183
0.038826
-0.0365942
-0.00441873
-0.00302769
-0.00444696
0.00305534
-0.00535089
-0.000105431
0.00423511
0.00333971
0.0051787
-0.0181051
-4.80794e-06
0.00917029
0.00352841
-0.00845891
0.0101604
-0.0112713
-0.00482959
0.0272178
0.00377299
-0.0206182
-0.000188717
-0.0140567
0.0390893
0.00242544
-0.000236153
-0.0135126
-0.00353878
-0.00575349
-0.0143164
0.00012361
-0.000895728
-6.1186e-05
-0.00962468
-0.00373484
-0.00283726
-0.0116578
-0.00395131
-0.00262257
-0.00376648
-0.00802803
-0.00431622
0.00950285
-0.000716396
-0.00709239
0.00878247
-0.00661444
-0.00319358
-0.00328981
0.0155411
0.00530226
-0.00522981
-0.00683038
0.0143418
-0.00719105
-0.01479
-0.00108175
-0.00371066
-0.0125589
-0.00722102
-0.00276253
0.012366
-0.00994492
-0.0057932
-0.0013012
0.00212794
0.000381423
-0.00783649
-0.00071744
-0.00389929
-0.00159212
0.00169609
-0.00600324
-0.00293155
-0.00537011
-0.0023768
-0.00507223
-0.00209641
-0.00432969
-0.00533755
0.000560154
0.00673057
0.00881879
-0.00692042
-0.00405823
-0.00216843
0.0113823
-0.0055649
0.00600516
-0.00300337
-0.00741923
0.00889905
-0.00529405
0.0103911
-0.00803597
-0.00619746
-0.00357606
0.014607
-0.00900058
-0.00523029
0.0147509
-0.0117638
-0.00721542
0.00177055
-0.0042644
0.0104185
-0.00380223
-0.00484491
0.030096
0.0273105
-0.0299359
-0.0170475
-0.00460979
0.00169175
0.0365102
-0.00349437
0.0395482
-0.0140538
-0.0143463
-0.0262853
0.000777258
0.0794129
-0.00378036
0.00364571
-0.0139682
0.00654656
-0.0170849
0.00840288
-0.00756064
0.00390003
0.0296641
-0.0430824
0.0118565
0.0148457
-0.0482325
0.0175211
0.009581
-0.0113425
-0.00468626
0.0602844
0.0727119
0.0766143
-0.0503162
0.0405505
-0.0792742
-0.011152
0.0154673
0.0450582
0.0233404
0.0117288
0.0224689
0.0279728
-0.0733227
0.0116404
0.00794153
-0.00392494
0.00306861
0.0124967
0.00707928
0.011466
0.00548849
-0.0159543
0.0175436
-0.00649925
0.0150574
-0.0151307
0.0616321
0.0202305
0.159897
-0.00303178
0.117073
-0.104194
-0.149515
0.146864
-0.00120915
0.0976913
0.0266754
-0.110121
0.120209
0.000264922
0.0765145
0.0168366
-0.0669659
0.0923157
0.00196665
0.0573069
-0.00890166
-0.0224831
0.0784068
0.00188852
0.0394627
-0.0191609
-0.00828401
0.0652227
0.00227491
0.0257796
-0.0145721
-0.000294622
0.0555684
0.00139753
0.0185742
-0.0108098
0.000492731
0.046152
0.000981706
0.0132161
-0.00612953
0.00134585
0.0407923
0.00147834
0.0120214
-0.00454027
-0.00360246
0.0392819
0.00208303
0.0113013
-0.00452879
-0.00734645
0.0413106
0.00256926
0.0110863
-0.00551789
-0.0101658
0.0454808
0.0028221
0.0110503
-0.00654028
-0.0115005
0.0506285
0.00294732
0.0112233
-0.00724895
-0.0120678
0.0559626
0.00298305
0.0116095
-0.00764955
-0.0122756
0.061085
0.00294626
0.0121536
-0.00786273
-0.012358
0.0658267
0.00286489
0.0127634
-0.00797451
-0.012394
0.0701377
0.00276796
0.0133315
-0.00802601
-0.0123827
0.0740611
0.00267652
0.0137481
-0.00803755
-0.0123089
0.0776101
0.00259433
0.014058
-0.00802407
-0.0121758
0.0808225
0.00252532
0.0142689
-0.00799425
-0.0120112
0.083738
0.0024641
0.0143535
-0.00792418
-0.0118078
0.0863853
0.00240812
0.014367
-0.0078213
-0.0116002
0.0887585
0.00235137
0.0143438
-0.00767944
-0.0113882
0.0908304
0.00229815
0.0143552
-0.00750011
-0.0112249
0.0925825
0.00224811
0.0144375
-0.00727336
-0.0111644
0.0939055
0.00220987
0.0146972
-0.00697681
-0.0112539
0.0946417
0.00217977
0.0152795
-0.00655476
-0.0116417
0.0945106
0.00214983
0.0163777
-0.00589849
-0.0124993
0.093043
0.0021019
0.0181873
-0.0048123
-0.0140108
0.0897534
0.00198498
0.0211106
-0.00300342
-0.0168039
0.0957114
0.00154338
0.0232326
-0.00190255
0.0880285
0.00205049
0.0248777
-0.0112801
0.0808902
0.0014646
0.0300592
-0.00725832
0.0701744
0.000570687
0.0457025
-0.0144921
-0.00094405
0.0529333
-6.36039e-05
0.0378672
0.0707845
0.00667356
-0.000575333
0.0446421
0.0304282
-0.00987783
0.0443558
-0.0583999
-0.00707941
-0.0348454
0.107576
-0.0449977
-0.0545258
0.00678134
-0.0991367
0.0185231
0.022199
-0.111097
-0.0115787
0.0190625
-0.123315
-0.00661555
0.0141972
-0.0137745
0.00321695
-0.115951
0.0987977
0.00197727
0.00140332
-0.103676
0.00603954
0.00839477
-0.0267091
-0.106134
0.00272574
0.00505598
-0.00532666
-0.108227
-0.00245925
0.00185808
0.00269199
-0.109208
-0.00600478
-0.000266797
0.00725075
-0.109534
-0.00820449
-0.00139431
0.00992383
-0.109421
-0.00959552
-0.00209503
0.0115764
-0.109058
-0.0105295
-0.00251914
0.0126849
-0.108496
-0.0112568
-0.00281514
0.0135103
-0.107783
-0.0118806
-0.00305489
0.0142227
-0.106939
-0.0124797
-0.00327111
0.0149081
-0.105931
-0.0131016
-0.00349136
0.015587
-0.104754
-0.0137605
-0.00372663
0.0163117
-0.103411
-0.014477
-0.00398973
0.0171254
-0.101867
-0.0152815
-0.00429718
0.0180365
-0.100023
-0.0162075
-0.00466234
0.0190288
-0.0978046
-0.017264
-0.00508338
0.0201309
-0.0951354
-0.0184791
-0.00556222
0.0213744
-0.0919066
-0.0198845
-0.00610845
0.0227665
-0.0879855
-0.0215317
-0.00674175
0.0243547
-0.0832317
-0.0234676
-0.00750078
0.0262168
-0.0774098
-0.025882
-0.00845943
0.0285216
-0.070275
-0.0289965
-0.00965525
0.0315179
-0.0615365
-0.0328986
-0.011092
0.0352534
-0.0505427
-0.0367999
-0.0126505
0.0384578
-0.0397819
-0.0366058
-0.0145488
0.0403913
-0.0148375
-0.0267014
-0.00977397
0.0115229
-0.00464104
-0.00673162
0.00193235
-0.00540866
-0.0299951
0.0123825
0.023479
-0.0512936
0.0269962
0.0445195
-0.0483255
0.0305167
0.0380946
-0.0444036
-0.0122747
-0.0249915
0.00436954
0.0058113
-0.029601
0.0117462
-0.0197875
-0.0155147
-0.00143872
-0.0215284
-0.0362871
-0.00598849
-0.0106801
-0.004859
0.0168332
-0.0184378
-0.00438487
-0.0111426
-0.00449365
-0.0222919
-0.00253731
0.00446865
-0.00389631
-0.0176225
-0.00524271
-0.0146378
-0.00254208
-0.00972518
-0.00119023
-0.00378377
0.000125315
-0.000938728
-0.00704295
-0.00186892
-0.000580058
-0.00701203
-0.00190668
-0.0085724
-0.00196814
-0.000987984
0.000253081
-0.00652168
-0.0013158
-0.000997525
-0.00448956
-0.00150344
-0.00202706
-0.00402321
-0.000317084
-0.00170626
-0.00381371
-0.00157858
-0.00342019
-0.00410247
0.000479888
-0.00332155
-0.00548565
-0.00153125
0.005221
-0.00422565
-0.00326164
-0.00105454
0.00675669
-0.00394367
-0.00164904
-0.00475918
-0.00208196
0.00662575
-0.00549566
-0.00438615
-0.00150324
0.0084485
-0.0056385
-0.00238062
0.0104322
-0.00754317
-0.00343939
0.0119567
-0.00976971
-0.00351795
0.0108331
-0.00267601
0.0273777
-0.0132571
-0.00328425
0.00248664
-0.00504286
0.0271844
-0.0208264
-0.00386763
0.0448462
0.0501447
-0.0465877
-0.0212232
0.0774577
-0.0319301
-0.000676896
-0.0186255
0.0908868
0.00520017
0.0286747
0.0028429
0.0332944
-0.00292303
0.0245849
-0.0443224
0.0517926
0.00123705
0.0826078
-0.0207316
0.0855109
0.0399518
0.0365524
0.110444
0.049246
0.00657645
0.108822
0.0297544
0.00751628
0.114384
0.0110032
0.00639504
0.125221
-0.00674281
0.00465652
0.130459
-0.0248606
0.00346291
0.132417
-0.0384728
0.000234959
0.13244
-0.0439258
-0.00139691
0.132527
-0.0432909
-0.00251853
0.133934
-0.0395894
-0.00353425
0.136198
-0.0356621
-0.00400419
0.138281
-0.0318106
-0.00404281
0.140061
-0.0286336
-0.00389905
0.141483
-0.0260022
-0.00366942
0.142615
-0.0237638
-0.00341473
0.143499
-0.0218807
-0.00313123
0.144185
-0.0203094
-0.00283366
0.144712
-0.0189979
-0.00253535
0.145111
-0.0178905
-0.00225566
0.145429
-0.0169589
-0.00199846
0.145675
-0.0161366
-0.00177381
0.145845
-0.0153961
-0.00156847
0.145979
-0.0147054
-0.00138772
0.14607
-0.0140173
-0.00122832
0.146139
-0.0132944