/*--------------------------------*- C++ -*----------------------------------*\
  =========                 |
  \\      /  F ield         | OpenFOAM: The Open Source CFD Toolbox
   \\    /   O peration     | Website:  https://openfoam.org
    \\  /    A nd           | Version:  7
     \\/     M anipulation  |
\*---------------------------------------------------------------------------*/
FoamFile
{
    version     2.0;
    format      ascii;
    class       volScalarField;
    location    "19";
    object      p;
}
// * * * * * * * * * * * * * * * * * * * * * * * * * * * * * * * * * * * * * //

dimensions      [1 -1 -2 0 0 0 0];

internalField   nonuniform List<scalar> 
15010
(
-79171.5
-81276.5
-80652.4
-82342.5
-83082.3
-83120.3
-83866.1
-83907.8
-83964.5
-83910.3
-83914.5
-83855.4
-83110.4
-83060.7
-82326.1
-80646.6
-81265.4
-79312.3
-81872.4
-81863
-82934.7
-82563.5
-82450.6
-83000.2
-83735.6
-83923
-84472.9
-84505.9
-84502.5
-84476.1
-84503.8
-84453.2
-83903.1
-83718.6
-82999
-82455.4
-82563.1
-82989.9
-83740.5
-83728.4
-83627.5
-83674.7
-83878.3
-84493.2
-84688.2
-85160.2
-85160.9
-85112
-85098.6
-85156.3
-85136.8
-84660.4
-84476.8
-83879.9
-83683.1
-83646.5
-84525.2
-84463.8
-84439.1
-84513.9
-84666.1
-84795.8
-85297.3
-85469.8
-85869.9
-85846.8
-85765.2
-85755.7
-85843.2
-85853.6
-85446.3
-85282.8
-84797.6
-84678.3
-85591.7
-85417.4
-85286.6
-85266.3
-85414.6
-85598.3
-85694.6
-86113.8
-86264.7
-86588.4
-86552.6
-86458.5
-86450.3
-86552.3
-86573.1
-86232.7
-86094.4
-85687.9
-86477.3
-86402.4
-86216.1
-86046.7
-86027.8
-86220.8
-86418.7
-86492.6
-86869.3
-87061.3
-87355
-87312.4
-87216
-87207.9
-87304.5
-87322.2
-87013.5
-86839
-87624
-87270.9
-87175.6
-86982.3
-86765.4
-86748.8
-86996.2
-87200.4
-87300.3
-87657.7
-87895.9
-88173.6
-88141
-88057
-88048.8
-88128.5
-88136.1
-87840.7
-88745.5
-88425.2
-88055.5
-87899.5
-87698.7
-87425.4
-87403.7
-87712
-87924.4
-88088.8
-88466.8
-88792.1
-89076.9
-89065.9
-89010.3
-89001.8
-89047.3
-89034.2
-90065.6
-89723.9
-89255.7
-88772.9
-88478.7
-88213.1
-87793.4
-87766.5
-88223.1
-88500.6
-88795.5
-89284.4
-89770.1
-90095.5
-90119.3
-90106.9
-90100.7
-90096.9
-91328.2
-91237.6
-90801.6
-90039.6
-89302.7
-88765.6
-88380.5
-87684.9
-87641
-88376
-88767.7
-89304.2
-90049.5
-90831.2
-91261.9
-91336.8
-91378.7
-91377.2
-92825.7
-92724.1
-92586.8
-91940.8
-90744.3
-89580.3
-88626.2
-88208.8
-87153.4
-87095.3
-88191.3
-88595.5
-89551.6
-90734.5
-91955.6
-92601.5
-92741.6
-92801.1
-94385.1
-94407.5
-94267.8
-94104.4
-93253.5
-91517.3
-89743.5
-88063
-87489.1
-86217
-86141.8
-87437.7
-88003.4
-89686.2
-91494.3
-93248.8
-94125.2
-94295.9
-95714.6
-96542.9
-96559.8
-95714.5
-95725.4
-94860.8
-92429.5
-90162
-87719.6
-86127.9
-83908.3
-83814.9
-86058.9
-87657.2
-90105.9
-92403.2
-94860.8
-95739.7
-97416.4
-96856.3
-100528
-100505
-96949.6
-97420.4
-96917.2
-93335.5
-90749.7
-88200.9
-84462.5
-79843.4
-79731.2
-84382.9
-88158.4
-90695.3
-93310.5
-96930.7
-97457
-101558
-106359
-99389.9
-97917.4
-99057.9
-104041
-108481
-106988
-103274
-103192
-106207
-99383.6
-101479
-97452.1
-93459.2
-89979.2
-86190.8
-84895.3
-84804
-86086.1
-89875.5
-93399.2
-92668.7
-97792.1
-97365.9
-105506
-112629
-109494
-109347
-106861
-108338
-103949
-97816.3
-92754.5
-88010.3
-84142
-84037
-83874.1
-83964.8
-87860.8
-84542.3
-91376.2
-87015.7
-94695
-104823
-113496
-117805
-127908
-113618
-113436
-117551
-113311
-112425
-105437
-97402.5
-91468.2
-84768.5
-80629.7
-82566.7
-82505.4
-80518.1
-81457.3
-82588.2
-78007.9
-82680.5
-90287.7
-101284
-110450
-116289
-125530
-125402
-127666
-106374
-104032
-116158
-110316
-101253
-104739
-94771.7
-87201.7
-82733.9
-79797.1
-81618.7
-89862.2
-92412.8
-90051.3
-86709.5
-82896.4
-78190.4
-75717.1
-69427.4
-69432.4
-75489.2
-74275.9
-71109.7
-70163.5
-76135.5
-82971.3
-92992.1
-102718
-113039
-113252
-94763
-89320.8
-91736.7
-95907.4
-97938.6
-97160.1
-96514.8
-94473.1
-89821.4
-80137.1
-69571.4
-64291.3
-63246.9
-61506.2
-66544.1
-68425.4
-69355.2
-67392.9
-68985.3
-69369.3
-69546
-69325.2
-69403.4
-69397.8
-69019.5
-68476.4
-67848.8
-67180.3
-66486.8
-65830
-65204.5
-64606
-64026.3
-63459
-62889.4
-62312.6
-61736.1
-61181
-60670.6
-60214.1
-59812.4
-59538.7
-59519.4
-60073.7
-62018.1
-67170.2
-75047.8
-79451.8
-76308.8
-71582.7
-98593.4
-27848
-467.911
12526.4
10196.8
20677.3
28378.3
28257.7
25825.6
26478.8
13135.9
6112.5
6549.92
20475.8
25721
25357.4
26151.9
26607.3
26112.9
26430.7
18616.4
28879.8
17361.5
18072.7
17318.1
14594.9
7246.15
12195.2
13147.4
4718.13
6562.33
-2856.77
-1537.8
-31958
-57862
-69466.3
-62991.1
-71281.8
-77073.1
-71844.3
-64353.2
-60227.7
-59061.1
-58982
-59119.2
-59462.2
-59889.8
-60398.7
-60907.2
-61449.4
-62010.3
-62577.8
-63142.8
-63717.7
-64308.1
-64923.3
-65569.5
-66253.4
-66973
-67710.9
-68412.9
-69035
-69437.3
-69839.6
-70383.9
-70975.6
-70889.6
-69499.7
-72710.7
-71456.2
-69045.9
-65820.2
-70591.6
-81189.6
-90375.8
-109721
-104821
-115244
-119288
-120080
-116640
-113252
-116473
-130474
-124299
-124345
-116244
-112925
-113079
-103169
-93105.9
-83154.4
-90406.3
-90575.5
-85423.2
-79749
-73920.2
-68565.6
-67314.8
-71495.2
-76429.5
-70427.6
-71057.1
-62871.3
-63041.7
-66998.3
-68292
-73641.9
-81988.3
-72508.1
-79574.7
-84644.6
-87731.6
-88537.3
-85732.3
-81510.2
-75479.2
-67402.6
-61687.7
-61092
-59681.1
-58810.5
-61712.7
-59136.1
-64974.9
-65754.7
-63905.3
-67176.4
-69091
-68572.4
-69686.8
-69490
-67446.8
-69872.8
-69316.3
-68922.4
-68445.1
-67874.1
-67271.8
-66607.1
-65933.6
-65269.2
-64608.5
-63968.8
-63332.4
-62684.3
-62015.1
-61331.6
-60639.2
-59952.5
-59298.4
-58691.3
-58124.4
-57636.7
-57406.4
-58127.2
-60862.2
-66081
-72551.4
-68852.6
-67020.5
-74158.3
-72905
-67492.7
-60989.5
-58617.2
-57882.5
-57972.2
-58372.3
-58885.4
-59448
-60067.2
-60724.1
-61391.7
-62046.3
-62689.5
-63316.5
-63939.8
-64575.5
-65228.3
-65898.5
-66571.4
-67214.1
-67777.9
-68268.1
-68710.5
-68982.3
-68795.6
-70280.7
-70434.8
-66555.7
-69651.9
-69242.4
-68878.6
-68453.2
-67944
-67356.6
-66686.4
-65997.5
-65322.8
-64651.4
-64009
-63365
-62715
-62044.2
-61356.6
-60666.2
-59984.6
-59336.7
-58734.5
-58190
-57754.3
-57624
-58236.4
-60998.2
-66352.3
-72854.9
-70063.9
-69448.5
-66962.6
-65996.4
-92837.9
-57729.3
-65878
-25960.2
4580.54
12648.5
632.908
11328.5
22407.3
22903.8
24660.6
27978.9
27662.8
24942.7
25078
16163
4281.13
12338.9
22164.4
25569.2
26902.6
27805.7
28178.9
27742.5
27083.3
28081.4
28711
28223
28322.8
27376.7
27130.9
27023.6
27135.7
27040.7
26966
26559.5
27767.7
27292.7
27898
27133.2
26300.3
26418
26352.1
26310.4
26310
26287.3
27210.9
27830.8
28178.8
28856.5
28435.1
27196.6
27703.6
21012.4
21271.6
17238.5
-4338.64
-18427.5
9006.57
-749.769
17072.7
19836.1
19211.9
13505.6
7983.94
16937.4
-11204.5
-19269.4
-28748
-42678.8
-48206.5
-28640.3
-28227.2
-14267.3
-9759.94
250.512
-27338.1
-55586.6
-73473.8
-78059.6
-73089.9
-65515.2
-62866
-61422.6
-61376.5
-61711.4
-61933.4
-62049.2
-62200
-62466.9
-62841.4
-63281.7
-63745.8
-64228.2
-64718.8
-65222.1
-65749
-66311.2
-66913.3
-67554
-68238.9
-68943.5
-69648.6
-70332.6
-71002.2
-71745.2
-72417.9
-72713.3
-72078.8
-72160.6
-66868.2
-66302.2
-71022.5
-71347.3
-62794.2
-66267.6
-68447.5
-67981.9
-69381.2
-69364.1
-69655.9
-68921.3
-69422.6
-69528.2
-69177.6
-68670
-68057.7
-67368.3
-66691.7
-66050.6
-65435.7
-64856.7
-64290
-63706.8
-63112.3
-62538.2
-61986
-61462.1
-60974
-60531.4
-60130.4
-59847
-59776.5
-60205.5
-61760.4
-66857.6
-75350.3
-79552.2
-79911.1
-74091
-103814
-28923.1
1269.31
14127.9
16497.5
25405
25194.9
22330.6
24786
28203.8
28345.7
27409.7
26698.9
26615.4
26486.7
25441.9
25380.2
25331.1
25286.5
25241.2
25197.3
25193.8
26291
27315.2
27433
28413.9
29297.8
30004.9
29729.5
29346.8
26219.6
27299.1
21468.3
23356.6
20877.6
23257.4
21417.6
8816.89
-3994
-10586.7
-22115.8
-39776.9
-50219.9
-59957.3
-66728.3
-66311.8
-62493.3
-60443.2
-60245.9
-60230.5
-60195.3
-60382.8
-60750.9
-61254.6
-61755.2
-62255.9
-62777.8
-63317.6
-63858.8
-64414.5
-64984.2
-65580.1
-66208.7
-66884
-67615.2
-68408.3
-69256.8
-70152.7
-71082
-72034.3
-72879.8
-73787.8
-74283.3
-80696.5
-79588.9
-78270.9
-75452.9
-84022.6
-97690.4
-97328.4
-102216
-110068
-116406
-111448
-116880
-116988
-120518
-122478
-123735
-123992
-130511
-94194.6
-95031.8
-85521.8
-75369
-70513.4
-60869.4
-56301.4
-57062.3
-58697.3
-59497.6
-59427.5
-58344.1
-58961
-58371.6
-53696.3
-57981.2
-54839.2
-59255.6
-56635.9
-55462.5
-60762.3
-57843.9
-63974
-65152.3
-66035.2
-67944.6
-69411.5
-67343.8
-68588.8
-69349.9
-70894.5
-71047.9
-70390.6
-69969.6
-69662.5
-69197.2
-68512.5
-67760.4
-66987
-66242.9
-65543.9
-64887.2
-64266
-63667.7
-63076.7
-62485.9
-61898.9
-61331.3
-60780.4
-60233.1
-59652.1
-59122.8
-58726.6
-58484.7
-58300.1
-58914.3
-62603.4
-70182.9
-76681.3
-73149.3
-61057.5
-79968.8
-59595.8
-37340.9
-8517.79
-2783.61
9236.16
22017.9
26605.9
28960.4
28987.3
26923.8
28243.9
27876.5
27972.2
27403
27365.4
26751.2
25695.6
25613.1
25531.9
24431.5
24349
24321.6
24276.4
24230.7
24167.3
24095.8
24055.5
24038.1
25188.6
26315.8
26366
27489.4
28572.3
29583.7
30473
30992.7
31102
28825.2
27554.6
29688.6
33128
35655.1
36796
37390
37617.9
37310.5
36971.7
36908.8
37359.2
37221.6
36977.3
36300.5
35273.6
31215.5
23002.5
13529.7
7769.27
-7403.57
-21277.6
-37800.2
-50123.7
-57188
-61529.2
-62090.2
-60168.3
-59161.8
-59777.1
-59840.6
-59996.2
-60115.5
-60458.2
-60977.4
-61454.1
-61900.7
-62371
-62880.4
-63412.9
-63977.9
-64570.4
-65200.9
-65874.3
-66605.6
-67408.6
-68300.1
-69307.9
-70423.6
-71675.3
-73075.4
-74395.8
-75779.2
-78305.7
-81080.3
-82240.3
-85746.1
-86996.1
-99533.9
-101026
-110713
-111046
-110417
-116880
-117324
-117622
-121102
-122886
-120378
-116800
-113251
-95876
-91814.5
-82196.1
-72734
-67639.1
-61941.8
-61195.1
-61234.9
-61586.3
-67392.6
-63321.4
-59523.9
-64857.7
-69638.3
-72316.7
-74881.6
-75133.7
-73818.5
-70655
-65448.5
-60798.8
-60038.5
-57707.8
-57186.7
-66793.6
-66985.9
-53688.9
-58332.1
-57085.5
-57481.3
-60547.4
-59435.2
-62619.5
-61112.6
-65488.3
-69024
-71792
-72770.4
-74471.3
-74014.8
-73032.6
-72116.6
-71149.1
-70227.5
-69328.4
-68465.3
-67653.9
-66903.9
-66221
-65589.8
-64992.6
-64417.1
-63847.8
-63285.3
-62738.2
-62229.7
-61750.7
-61253
-60726.1
-60312.3
-60123.5
-60057.7
-59923.9
-59606.4
-61111.6
-65003.3
-67062
-61921
-49634.1
-39810.6
-37167.5
-14946.9
-5691.82
7697.2
5647.93
16206.1
7729.75
15471.2
27207.1
29468.3
29823.2
29167.1
28685.1
28498.4
27620
27676.6
27630.4
26892.2
26800.5
25775.3
24708.2
24596.8
24506.6
23339.9
23254.2
23191.6
23277.7
23252.7
23208.7
23136.7
22945.1
22889.2
22861.8
22862.8
24033.9
25202.2
25232.6
26419.1
27553.6
28663.1
29748.6
30734.8
31533.1
32148.3
32629.3
32338
32245.7
34678.4
35597.7
36386.5
37387.9
37826.1
38068.8
37674.7
37572.9
36806.3
36623
35857.1
35875.6
35533
35705.2
36559.3
35129.1
33837.9
32552.2
31153.9
30486.7
29429.3
28351.3
27296.7
26161.6
25080.1
23907.9
22810.6
21628.2
20534.6
19355.9
18253.5
17074.8
15976.5
14783.1
1913.46
2776.46
3748.53
4780.25
5488.21
6195.53
7236.51
8352.09
9410.21
10145
10902.9
12032
13175.9
14238.8
14940.9
15660
16668.2
17328.9
17929
18549.3
19142.5
19754
20328.5
20921.6
21468.8
22022
22518.5
23028.6
23105.9
23170.8
23616.7
24063.1
24069.8
24055.3
24013.7
23945.1
23863
23373.8
23124.8
23205
23271.9
23311.1
23322.7
23315.6
22445.3
22400.5
22324.1
22257.8
21366.7
21301.6
20306.3
20129.9
19127.4
18953
17936.8
17742.2
16697
16603.7
15482
14327.8
14215.5
13166.6
11979.4
10739.6
9525.35
8349.23
7199.72
6044.36
4876.94
4757.91
3719.71
2749.55
1912.84
1909.16
2729.18
3735.81
3639.32
4302.67
4989.71
6022
7157.51
8315.56
9471.56
10550.8
11298.3
12043.9
13140.1
14182.8
14863.6
15561.5
16550.7
17194.8
17783.4
18377.9
18937.8
19501.3
19632
20149.8
20656.7
20738.3
21220.1
21686.4
21684.4
21666.3
21628.8
21574.2
21508.6
21001.5
20708
20771.7
20835.2
20871.4
20877.9
20879.8
19978.9
19970.9
19853.4
18915.2
18841.8
18668.8
17692
17598.8
16539.3
16469.4
15405.5
14230.9
14137.4
13090.3
11897.6
10668.3
9462.49
8289.07
7145.24
5992.12
4837.68
3716.6
3624.61
2703.35
2711.05
1899.45
935.978
1285.95
1896
2709.62
2720.39
3681.55
4702.07
5399.23
6094.12
7122.9
8229.15
9279.85
10010
10759.1
11850.4
12890.5
13560.3
14246.7
15227.8
15846.6
16413.7
16968.8
17101.5
17635.4
18147.8
18220.9
18700.3
19158.7
19142
19108.9
19066.4
18569.2
18235
18266.4
18298.8
18325.9
17435.7
17409.2
17306.2
16367.3
16277.8
16127.2
15196.9
15117.6
14069.2
12940.8
12833.8
11792.8
10603.4
9415.26
8231.77
7072.04
5916.7
4787.54
4680.24
3691.36
2828.17
2291.51
2837.88
3709.03
3677.28
4729.76
5878.78
7036.02
8219.11
9401.93
10612.3
11776.9
11733
12906
14088.5
14073.1
15222
15222.1
14107.5
13329.8
13885.9
14415.4
14504.8
15003
15471.7
15449.1
14947.3
14583.4
14605.8
13702.9
13664.3
13553.6
12624.1
12538
12763.4
12948.9
12176.7
11538.7
10521.6
10585.8
9479.5
8737.65
9460.78
9288.07
10439.1
11442.9
11532.4
10414.5
9276.72
8122.49
8146.69
8049.31
8083.05
7131.8
6458.63
7129.64
6989.26
5870.55
5742.05
5755.17
4709.82
3678.58
2708.37
2713.86
1881.24
1798.43
1804.97
1885.78
1850.81
1842.93
2639.38
3235.23
3862.44
4769.91
4731.45
3810.01
3793.88
3658.48
2733.29
1867.29
3726.83
4749.37
5836.89
6967.84
6946.33
8098.57
9252.82
10398.8
11526.6
11514.7
12620.8
12616.7
11498.3
10360
10379.8
9230.34
8076.2
6926.41
5795.46
5814.66
4719.98
3693.15
3665.71
4699.71
4684.53
5776.59
6906.79
8056.54
9210.85
9189.69
10337.9
11473.7
12591.2
13676.1
13584.7
14412.9
14276.4
13722.3
13424.5
12498.3
12543.9
11442.2
10312.1
9168.74
8020.57
8038.08
6890.63
5763.12
4673.64
3650.82
3659.69
3640.94
4666.83
5755.8
6878.79
6866.25
8006.33
9150.4
10287.2
11406.9
11368.2
12369.1
13144.8
12557.7
11954.6
11304.1
11242.4
10248.6
10261.3
9134.52
7995.03
6855.5
5742.39
5747.03
4665.47
3652.26
2248.03
2830.52
3670.77
4673.33
4674.01
5750.02
6846.23
7983.48
9109.52
9248.57
8521.84
7865.42
7859.08
6957.56
6290.54
5602.81
4616.82
3719.63
3788.7
3168.57
2703.47
2581.75
2636.48
3576.87
4578.33
5596.31
5691.8
6818.63
7972.23
9127.47
10311.7
11456.4
12602.7
13716.9
14758.1
15463.6
14827.2
13852.7
13153.9
12476.3
12455.3
11432.2
10263.4
9102.17
7950.39
6823.83
5703.39
4613.1
4576.67
3559.21
2627.33
1736.27
2206.55
2736.16
3574.97
3542.7
2715.25
2601.71
3520.13
4498.52
5174.16
5854.07
6848.35
7919.8
8939.96
9637.26
8939.55
7913.59
6843.12
5841.53
5714.34
6821.95
7925.1
9062.87
10236
11434
12603.2
13628.7
14322.9
13636.8
12617.8
11546.3
10804
10098.6
10091.2
9042.71
7924.67
6810.38
5723.73
4738.2
4610.89
3539.69
2580
1803.21
1803.85
1188.43
1846.4
2357.72
2915.89
3810.03
4906.36
6054.05
7233.38
8403.66
9605.35
10804.3
12002.8
13060.6
13780.9
14521.8
15550.2
16250.8
16969.9
17976.8
18645.9
19254.2
19882.7
20474.1
21085
21654.3
22238.6
22776.3
23322.2
23817
24332.7
24477.9
24990.7
25440.9
25446.9
25485.6
25502.1
25475.6
25430
25363.5
25255.3
25131.1
25050.3
24559.1
24336.6
24387.2
24483.4
24604.3
24679.7
24723.4
24735.6
24702.1
24689.7
24713.9
23866.1
23731.6
23558
22702.2
22580.6
21632
21476.3
20486.7
20306.6
19293
19096
18072.8
17895.1
16811.7
15688
15488.9
14360.7
13188.3
12032.9
10908.2
10790
9583.87
8383.21
7205.39
6025.96
4873.29
3778.6
2785.26
1913.55
1828.4
1152.11
1538.9
2033.16
2842.66
3830.07
4905.68
6048.83
7232.52
8437.04
9644.28
10842.2
12023
13200.6
14304.2
15074.6
15817.6
16840.1
17533.9
18248.6
19271.2
19962.4
20562
21185.8
21770.8
22379.6
22942
23519.5
24044
24599.8
25131.9
25645.1
25730.5
25802.6
26237.4
26724.4
26782.4
26858.8
27292.7
27646.3
27579.1
27532
27510.3
27096.6
26869.9
26915.5
26962.6
27005.1
26212.2
26182.8
26080.7
26004.5
25895.8
24802.6
23639.3
22381.5
21258.4
20023.2
18297.5
17735.1
15976.3
15430.2
13698.1
13081.9
11953.4
10681.9
9558.04
8281.88
7162.33
5912.21
4844.4
3695.17
2771.78
1859.98
662.03
928.898
1298.11
1953.76
2822.72
3812.26
4901.02
6052.4
7243
8453.57
9669.35
10877.9
12072
13235.9
14332.9
15093.1
15860.7
17011.5
18072.3
18786.2
19409.4
20046.5
20732.5
21771.2
22437.9
23023
23631.1
24192.1
24769.3
25289.2
25807.6
25915.9
26432.6
26987.2
27094.3
27567
27976.4
27979.1
28012.3
28017.5
28405.3
28766.8
28700
28649.7
28620.6
28196.1
27988.4
28054.3
28102.5
28130.2
27978.1
26986.2
25834.4
24635.6
22780.4
20385.2
18066.7
15716.9
13396.2
9917.42
8666.5
6389.77
4149.02
2267.28
90.1041
184.164
368.57
680.447
1135.58
1543.11
2044.67
2858.84
3846.41
4933.16
6083.47
7274.85
8490.04
9712.84
10931.6
12137.4
13318.8
14434.5
15219
15969.2
17140.1
18198.8
18923.4
19645.5
20706.6
21402.2
22022.5
22715.4
23364
24356.6
24975.5
25522.2
26128.9
26648.6
27247.9
27439.2
27973.1
28514
28960.2
29474
29570
30007.5
30452.9
30465.2
30807.2
31219.8
31222.7
31142.4
31011.7
30890.9
30819.3
30754.6
30692.2
30679.7
30684.3
30652.3
30548.6
30085.8
30027.7
30130.3
30207.2
30217.1
30167
30013.4
30456.1
30528.9
30589.4
30634.8
30416.6
30553.6
30656.8
30685.5
30675.1
30230.8
30221.8
30208.5
30128.5
29638.4
29661.3
29655.1
29627.8
29821.9
29946.7
29860.3
29379.3
29413.7
28846.8
28740
28898.2
29001.7
28842.2
28330.8
28432.1
27825.8
27652.1
27790.7
27883.5
27310.5
26738.4
26810.7
26558.8
26001.1
26180.5
25495.4
25266.6
25448.1
25477.3
24909.4
24284.9
24323.3
23332.7
22654.8
23298.4
23256.3
24240.8
24395.8
23723.3
24266.6
24880.9
25448.2
26037.5
26543.4
27106.6
27216.7
27709.7
28224.7
28274.7
28710.4
29147.1
29148.8
29160.6
29128.5
29483.3
29795.8
29725.9
29670.4
29632.5
29253.2
29063.7
29131
29183.7
29218.5
29032
28074.3
26915.4
25755.1
24545.6
24623.3
22909.6
20482.2
18132.8
15786.9
13475
13464.3
11119.1
8712.22
6431
4177.77
2289.42
505.114
752.007
1239.72
1942.9
2809.59
3807.34
4900.37
6057.59
7252.34
8468.15
9689.5
10907.3
12113.5
13306.6
14501.7
15617.8
16401.5
17119.2
18150.2
18845.9
19544.2
20602.6
21298.6
21925.4
22546.7
23102.3
23038.3
22865
21723
20489.2
19317.8
18014
16856.4
15571.9
14438.6
13180.1
11419.3
10782.3
9648.77
8367.36
7244.52
5992.14
4919.35
3767.99
2818.19
1901.74
1207.15
646.506
928.826
1300.52
1953.74
2820.38
3819.29
4913.14
6068.87
7263.94
8480.22
9704.24
10924.1
12131.4
13313
14410.7
15167.6
15920.5
17059.1
18173.2
18892.4
19593.4
20655.8
21343.2
21971
22000
21843.8
20646.8
19432.2
18201.1
16975.9
15750.4
13882.3
13272.1
12107.9
10825
9684.29
8397.2
7269.32
6013.22
4935.69
3782.09
2831.72
1908.96
1209.21
690.297
684.623
1155.42
1297.1
1960.04
2838.58
3833.66
4925.12
6077.93
7271.78
8487.23
9711.49
10930.8
12137.2
13313.1
14421.9
14434.7
13295.6
12108.1
10900.3
9687.66
8470.19
7263.4
6074.27
4925.68
3831.86
2836.7
1965.83
1290.26
1212.24
698.268
253.186
397.524
706.18
1183.82
1837.11
2377.3
2960.35
3875.61
4949.85
6099.23
7288.25
8495.65
9717.36
10937.6
12133.3
13228.3
13973.9
14725.5
15887.2
17020.7
17752.3
18453
19501.1
20255.9
20953.4
21983.7
22727.9
23418.6
24409.2
25041.7
25580.7
26199.8
26730.8
27317.6
27782.2
28427
28656.7
29127.1
29622.8
30004.7
30543.6
30660.9
31011.1
31473.1
31489
31474.2
31779.8
32062.5
31949.1
31772.7
31616.9
31552.2
31485.1
31408.7
31423.8
31468.5
31465.1
31125.1
31047.9
31048.8
31037.8
31021.1
31070.9
31137.6
31225.5
31380.8
31519.4
31626.6
31287.9
30376.8
29299.7
27613.7
27154.2
25482.4
23074.7
20723.2
18317
15953.3
13550.6
11205
8768.64
6460.43
4181.73
2298.75
935.726
1284.61
1926.75
2783.63
3773.18
4823.63
5561.53
6266.93
7329.68
8470.29
9560.13
10291.7
11064.4
12221.8
13410.6
14615.8
15771.9
16528.7
17265.5
18411.1
19528
20273.9
20993.7
22049.1
22735.3
23321.3
23989
24635.3
25503.7
26210.6
26737.8
27392.7
27881.6
28494.4
28754.4
29278
29771.5
30152.4
30687.2
30853.3
31244.8
31690.9
31763.4
32077.3
32445.9
32366.8
32221.4
32409.1
32563.5
32369.6
32167.3
32176.9
32111.1
31955.3
32004.3
32061.1
31838.9
31747.1
31623.4
31534.1
31615.8
31682.8
31746.6
31979.6
32231.6
31734.3
30886.2
29964.4
28987.5
27387.2
26780.9
25719.8
24543.5
23461.1
22248.8
21166
19938.6
18843.9
17591.1
16482.1
15220.7
14108.8
12844.1
11727.5
10463.4
9349.29
8096.56
6996.7
5775.8
4727.84
3598.84
2701.91
1808.97
1926.21
2752.59
3695.84
4387.13
5080.41
6144.11
7306.26
8492.83
9684.98
10810.1
11559.8
12332.2
13485.7
14683.6
15873.4
17027.8
17761.6
18511.9
19568.5
20357.8
21082.9
22108.6
22858
23540
24510
25225.7
25796.8
26462.2
27038.1
27689.1
28229.7
28836.7
29331.4
29885.2
30304.6
30880.7
31131.1
31607
32067.8
32398.8
32882.6
32947.8
33217
33626.2
33523
33395.5
33469.3
33787.4
33409.9
33189.9
33089.5
33366.6
33306.7
32900.4
32802.8
32855.3
33053.3
32689.6
32690
32401.7
32393.7
32240.6
32617.9
32679.6
32989
33053.9
32877.9
32975.7
32835.2
32971.3
33396.5
32976.1
32670.4
31521.7
30508.4
29742.8
28829.1
27841.8
27488.9
26978.6
25914.2
24718.7
23628
22401.3
21308.1
20064.7
18957.5
17701
16592.5
15321.9
14196
12927.9
11808.8
10537.1
9405.18
8143.67
7041.7
5810.71
4748.13
3614.88
2722.96
1834.13
182.947
369.024
693.085
1189.23
1855.22
2043.91
2866.97
3864.41
4945.52
6093.49
7282.31
8495.79
9717.63
10936.3
12139.4
13338.6
14460
14446.4
13287.4
12114.5
10896.3
9712.98
8465.44
7288.34
6071.86
4954.28
3855.35
2879.64
2023.36
1922.8
1205.65
699.702
370.336
180.063
1831.03
2345.66
2901.9
3796.32
4810.94
5544.29
6257.42
7324.76
8465.89
9561.73
10302.2
11083.4
12257.9
13466.2
14687.6
15903.1
17010.4
17748.7
18503.6
19562.2
20374.4
21110.8
22129.6
22888.7
23574.8
24533.9
25251.1
25850.9
26542
27176.4
27815.5
28403.3
28996.9
29541.8
30099.6
30609.7
31152.7
31600.7
32164.6
32371.9
32808
33258.9
33587.6
34053.5
34133.9
34338.5
34766.7
34750.7
34800
35362.5
35305.3
35228
35744.9
36294.1
36225.1
36911.7
36881.8
36043.6
35756.8
35008.6
35008.3
35223.9
35936.7
36000.8
35408.3
35607.2
34703.5
34668.3
35156
35080.2
34477.4
34236.5
34128.8
33410.8
33378.1
33275.7
33463.7
34059.3
34126.6
33652.3
33636.2
33944.3
34692.8
33997.7
34611.2
34852.8
34248.9
34062.6
32888.7
31466.5
30478.7
29724.5
28904.1
27937.3
26924
25839.1
24706.8
23552.4
22382.8
21254.2
20068.5
18897.7
17692.3
16535.4
15319.9
14154
12933
11760.8
10539.8
9372
8159.47
7007.23
5824.48
4727.02
3635.67
2692.54
1828.14
3357.24
3950.51
4912.29
5962.41
6701.05
7391.41
8381.15
9075.91
9842.65
11000.7
12204.6
13434.2
14671.2
15831.7
16808.7
17680.9
18523.1
19619.7
20433.2
21196.4
22220.2
23142.2
23928.4
24637.9
25384.8
26027.2
26710.9
27393.5
28198.9
28902.1
29417.4
30079.5
30562.6
31187.8
31641.8
32229.5
32490.3
32962.1
33524.8
33973.2
34490.7
34654.7
35041.6
35574.9
35925.7
36468.2
36649
36843.9
37682.8
37898.4
38396
38182.9
38069
36759.6
32806.6
31361.3
30675.5
33174
32100.9
31366.7
27750
24968.2
11830
455.163
-14403.4
-29535.5
-44921.4
-53919.8
-57412.4
-58324.6
-58999.8
-59917.7
-60477.2
-60918.6
-60949.8
-61226.8
-61739
-62151
-62542
-62971.2
-63446.1
-63948.7
-64476.6
-65035
-65631.1
-66278.9
-66991.6
-67792.6
-68710.6
-69807
-71052.3
-72552.9
-74450.1
-76539.1
-77510.8
-80995.6
-80395
-89087.5
-87415.8
-92873.4
-94023.3
-100572
-100754
-101239
-102429
-97852.9
-110129
-111655
-105237
-115501
-119388
-96891.6
-97465.1
-97874.8
-88041.2
-84875.2
-79798.4
-69736.8
-65064.4
-59737.8
-60371
-60484.7
-61143.1
-58103.5
-60599.7
-61642.4
-65222.9
-66617.3
-66800.5
-65942.5
-63645.8
-60740
-59233.8
-57079.2
-56358
-66323.8
-66415.9
-52638.6
-57117.8
-56311
-56928.9
-59576
-60551.4
-67290.7
-80446.9
-90946.4
-81576.6
-84459.2
-87384.6
-86027.6
-82540.4
-80904.3
-80991.2
-77453.9
-74604.9
-72531.9
-70924.9
-69625.1
-68504.1
-67559.1
-66735.6
-66007.6
-65343.3
-64728.8
-64144.6
-63587.1
-63053.5
-62565.9
-62126.5
-61724.9
-61276.7
-60765.1
-60563.3
-60692
-60300.3
-59246.5
-58330.5
-56876.8
-54893
-49898.5
-38697.9
-25003.4
-12171.6
2045.55
14233.9
21243.9
32001.5
31831.8
32271.6
30693.5
28811.6
21600.6
11887.1
1237.03
-12783.6
-27709.8
-41069.6
-51258.8
-55615.4
-57543.9
-58663.2
-59457.1
-60265.1
-60834.4
-60768.1
-60962.5
-61426.7
-61852.3
-62244.1
-62669.9
-63139.8
-63652.6
-64195.4
-64770.3
-65380.3
-66041.6
-66767.5
-67583.3
-68520
-69640.3
-70923.9
-72511.9
-74628
-74538.4
-76882.4
-76945
-80475.5
-89375.7
-94191.6
-93004.7
-100025
-98258.1
-80921.8
-79521
-74594
-69549.2
-61470.9
-70852.7
-73048.7
-69972.4
-72085.2
-65221.4
-75612.4
-90267.6
-94875.6
-81747.6
-85968.9
-88687.6
-75303.9
-74992.4
-72415.1
-65245.8
-61655.3
-60931.6
-64307.4
-62248.6
-60962.7
-57615.5
-60301.1
-60690.3
-61313.7
-60977.1
-61427.1
-62135
-61663.8
-59682.6
-55898.5
-69421
-67565.3
-67708.7
-58035.6
-55825.9
-58800.8
-60374
-63447.2
-70677.2
-73985.6
-65996.2
-66944
-66699.9
-61384.4
-62070
-61744.7
-59700.6
-58659.9
-59620.9
-59626.4
-58686
-56512.5
-56885.7
-55664.8
-52457.3
-58660.7
-66788.1
-67293.8
-66530.5
-66231.7
-70318.8
-74728.5
-73224.7
-61038.8
-76530.3
-75264.3
-73157.3
-70775
-76225.3
-78001.7
-75120.6
-63476.3
-61830.3
-61830.7
-73480.7
-73562.5
-78917.7
-76627.6
-65098.9
-65195.5
-76755
-81036.8
-81033
-82017.8
-84767.4
-92066.1
-84039.6
-84065.5
-90286.6
-95731.1
-97789.4
-90582.7
-85354.7
-82646.3
-74245.3
-85835.1
-76685.5
-76656.1
-79660.9
-85841.1
-82663.7
-85290
-86683.4
-81958.5
-71238.5
-85372.2
-79576.7
-74827.4
-77756.1
-72864.2
-62253.2
-64109.9
-74866.7
-73084.1
-70251.8
-70214.1
-73123.6
-81076.8
-82370.4
-86064.2
-89261.1
-76706.6
-75270.8
-74806.5
-70107.6
-76567.8
-76802.4
-88644.8
-89339.8
-90987.5
-85084.6
-90332.7
-91377.7
-89282.2
-90815.2
-98120.1
-94277.7
-98158.9
-90863.9
-81062.6
-76179.4
-70731.4
-83997.9
-78842.7
-84678.8
-92072.5
-90339.9
-84008.8
-95751.5
-97769.9
-90524.9
-90563.4
-94476.7
-94615.7
-94676.4
-94457.8
-98506.6
-101641
-102346
-99318.1
-96899.4
-96865.9
-91511.9
-88782.7
-88694.7
-90058.2
-92439.4
-91442.8
-88703.9
-88748
-90484.4
-92154.9
-93395.3
-93037.4
-97442.4
-97652.6
-99094.7
-101106
-99444
-97928.9
-97391.2
-93590.5
-92733.9
-91404.7
-93516.3
-93240.5
-93252.5
-92389.6
-91279.7
-90278
-84786
-84767.6
-90241.9
-91227
-91344.5
-90417.6
-92959.8
-93421.3
-92218.7
-89887.8
-92812.7
-93616.3
-93446.7
-93179.8
-93264
-92438
-91842.1
-90417.6
-90460.3
-91802.3
-92502.2
-92484.8
-91736.4
-91688.6
-91361
-89905.1
-89869.5
-90196.9
-90162.4
-89828.8
-89652.9
-89684.5
-89390.5
-88889.3
-88213.8
-87457.4
-86697.1
-86727.1
-87452.8
-88164
-88807.7
-89295.1
-89606.7
-90906.8
-90919.7
-91034.6
-90293.5
-90161.5
-90284
-89556.6
-89365.2
-89487.5
-88658.4
-88546.5
-88759.4
-87899.8
-87787.9
-87847.7
-87073.2
-87056.8
-87077.3
-86303.2
-86348.6
-86323.6
-85998.5
-85943.7
-85182.8
-84360.4
-83460.1
-82463.9
-83029.7
-83880
-84597.1
-85288.1
-85528.3
-85626.9
-85587.2
-85806.7
-86546.2
-87317.2
-88142.6
-89044.4
-90045.6
-91141.8
-92321
-93581.5
-94958.2
-96391.6
-97427.9
-97383.8
-97377.3
-96830.1
-102351
-101615
-98491.6
-99293
-96949.6
-97714.6
-97432.4
-95838.4
-96334
-96594
-99349.6
-101053
-96715.6
-94930.4
-93622.3
-92383.1
-91175.9
-90049.4
-89035.7
-88142.6
-87336.2
-86590.5
-85886.3
-85211.8
-85095.3
-85343.6
-86105.3
-86878.3
-87666.1
-88466.8
-89312.1
-90206.8
-91157.3
-92171
-93251.4
-94395
-95812.2
-84891.4
-84765.7
-84053.3
-84143.2
-84100.6
-84855.7
-84853.6
-85580.6
-86317
-87067
-87845.4
-88651.3
-89473.2
-90265.5
-90996.4
-91688
-92428.3
-92525.5
-91706.7
-91413.6
-89862.1
-89572.3
-90963.4
-90934.5
-90181.7
-90355.1
-89266.1
-89360.5
-88866.3
-88194.3
-87437.1
-86671.5
-86722.7
-87449.9
-88159.4
-88791.3
-89627.1
-89394.9
-88590.5
-88826.9
-87954
-87834.8
-87095.5
-87119.5
-86331.5
-85998.6
-85913.4
-85146.2
-84342
-83444
-82419.6
-83008.7
-83872.7
-84588.3
-85284.6
-85549.4
-85650.4
-86368.9
-86924.4
-87707.3
-88519
-89374.9
-90271.6
-91211.7
-92213.3
-93288.3
-94426
-94916.9
-94836.2
-93558.7
-93557.8
-92311.6
-92346.1
-91155.4
-91139.5
-90053.7
-90041.2
-89037.4
-89056.7
-88157.1
-88141.5
-87335.3
-87331.6
-86563.8
-86588.4
-85884.2
-85829.3
-86146.3
-85380.4
-85116.6
-85207.7
-84573.3
-84570.1
-84406.2
-84592
-83899
-83366
-83463
-83254.3
-83769.4
-83973.1
-83260.5
-84088.2
-84171.5
-84918.6
-84783.9
-84071.4
-83502.4
-83393
-83788.4
-84435.3
-84624.6
-83911.4
-83978.1
-106352
-103958
-85460.4
-75265
-70393.3
-72751.7
-74250.1
-70160.5
-66125.7
-57028.4
-57339.2
-56035.7
-53152.6
-66519.9
-66615.7
-66107.8
-69890.7
-74180.4
-75139.8
-76417.1
-76686.1
-76528.4
-76226.8
-85820.4
-82150.4
-88963.2
-88571.2
-89154.2
-90716.6
-85233
-88462
-88597.2
-92166.9
-92098.4
-95041
-91389.5
-90461.6
-93999
-84900.9
-87911.2
-75028.8
-69186
-72558.3
-70914.7
-68060.2
-72744.6
-74193.7
-75051.4
-87767.8
-82566
-83511.6
-76809.7
-69257.6
-67459.8
-71503.7
-68522.8
-67933.1
-58646.6
-69663.8
-72014.7
-64199.2
-70568.5
-75724.3
-78640
-79922.1
-81007.1
-75857.4
-74438.5
-73097.8
-71687.1
-70419.9
-69288.5
-68265.1
-67357.4
-66542.4
-65809.5
-65139.4
-64512.6
-63917.6
-63340.7
-62784.7
-62257
-61774.4
-61322.9
-60824.7
-60268
-59869.4
-59754.5
-59603.8
-59458.4
-58334.8
-58873.4
-60576.6
-59971.3
-55301.2
-47312.2
-34699.9
-15624.8
-8839.1
7861.72
14716.8
19261.9
15890.4
21181.3
12397.4
22841.5
29605.9
31568.3
31104.4
30405.1
29477.8
28472.8
28307.8
28102.3
27935.2
27073.8
26940.2
25922.9
25849.4
24792.6
23766.3
23652.1
23438.8
22243.1
22152.8
22073.3
22002.2
21837.7
21799.6
22519.5
23153.2
22978.6
21808.8
21771.6
21719.7
22442.2
23083.2
24120.6
24083.4
24193.6
25244
25172.6
25180.4
25106.8
24018.7
22895.5
21748.5
20581.3
20646.8
20533.3
21766.7
21709.8
21682.1
21661.1
21768.3
22876.2
24034.2
23927.1
24667.4
25362
26494.4
27655.2
28760.6
29874.6
30924.5
31908.7
32813.3
33710.4
34525.4
35958.2
36469.2
37469.5
37966.1
38089.8
37350.7
37549.7
37014.5
36203
35667.3
35400.4
34770.1
34849.5
34767.7
34523.2
34582.6
35102.4
35406.9
34347.7
33128.3
31920
30685.6
29105.9
26792.4
24562.6
22314.7
18877
17636.8
17074.5
15980.6
14783.3
368.094
679.294
714.767
1200.54
1927.77
2808.76
3798.51
4842.28
4958.69
6117.29
7306.57
8489.46
9711.3
10939.5
12168.3
13253.8
13272.8
12133.1
10900.9
9690.31
8485.01
7291.26
6117.32
4975.25
3863.72
3854.73
2947.16
2915.02
2815.3
1925.78
1215.63
718.83
391.045
399.295
370.072
38605.5
37949.8
37296.6
37022.6
29699.5
25918.4
28378.9
31813.2
28793.5
28168.8
29094.9
28679.2
25504.2
26318.6
24103.9
24426.7
27344
29080.3
29210.2
31866.6
31120.4
25172.6
27664.2
32332.5
33092.6
31931.7
29551.7
32828.2
30846.9
32942.2
33587.4
34391.5
33410.6
32209.7
25412.9
29634.3
31384.7
32586.3
32555.2
31670.6
30080.3
32049.7
32352.8
32961.6
32494.8
32955.4
32970.2
33220.8
34205.5
34392.3
33242
32290.4
31475.8
30428.1
29395
28339
27196.5
26076
24870.2
23728.9
22501.4
21362.3
20129.9
18986.7
17761.1
828.728
1170.79
1772.01
2572.53
3499.22
4520.02
5603.62
6728.03
7874.4
9029.77
10184.3
11330.4