/*--------------------------------*- C++ -*----------------------------------*\
  =========                 |
  \\      /  F ield         | OpenFOAM: The Open Source CFD Toolbox
   \\    /   O peration     | Website:  https://openfoam.org
    \\  /    A nd           | Version:  7
     \\/     M anipulation  |
\*---------------------------------------------------------------------------*/
FoamFile
{
    version     2.0;
    format      ascii;
    class       volScalarField;
    location    "19";
    object      p_rgh;
}
// * * * * * * * * * * * * * * * * * * * * * * * * * * * * * * * * * * * * * //

dimensions      [1 -1 -2 0 0 0 0];

internalField   nonuniform List<scalar> 
15010
(
18475.3
16969.1
17305
15531.8
14774.3
14753.1
14066
14042.3
13970.8
14034.4
14049.1
14087.9
14774.7
14806.4
15556.8
17319.2
16987
18341.7
16662.1
16664.4
16482.5
16739.2
16728.4
16103.7
15349
15169.3
14647.7
14634.2
14658.5
14694
14649.8
14679.2
15200.8
15376.7
16113.9
16732.4
16746.3
16432.7
16744.1
16747.9
16799.8
16691.8
16442.1
15810.6
15615.9
15161.6
15179
15259
15281.7
15197.4
15196.9
15655.1
15837.6
16449.9
16692.4
16787.6
17071.1
17154
17171.8
17074.5
16890.9
16735.3
16222.1
16047.7
15660.6
15699.8
15816.9
15835.9
15717
15688.5
16082.2
16247.2
16742.9
16887.3
17174.9
17364.4
17505.9
17519.2
17360.2
17159.5
17048.4
16621.3
16468.4
16155.4
16205.3
16337.6
16355.6
16218.7
16181.9
16511.2
16651.2
17063.7
17489.7
17573
17768.8
17943.1
17955.2
17756.9
17548.5
17465.5
17083
16888.8
16604.3
16659.4
16796.2
16814.2
16680.1
16648.4
16947.4
17123.1
17556.2
17912.8
18014.5
18214
18433
18443.2
18193.3
17981.6
17875
17512.5
17272
17002.2
17045.9
17170.9
17189.1
17070.5
17050.9
17337.4
17649.9
17973
18346.2
18506.8
18711.7
18985.4
19001.3
18692.3
18474.3
18304.7
17921.8
17593.5
17314.8
17335
17430.5
17449.3
17365.5
17368.1
17549.3
17886.7
18358.9
18845.5
19142.3
19409.3
19827.1
19848.5
19393.4
19112.9
18815
18321.3
17831.2
17509.4
17492.5
17541.2
17558.5
17526.5
17498.9
17585.7
18020.7
18789
19529.4
20064.7
20445.8
21135.1
21173.6
20444.4
20055.5
19520.4
18770.7
17982.3
17551.3
17480.1
17468.2
17482.1
17221.7
17298.8
17436.2
18088.6
19296.2
20462.4
21404.8
21805.8
22844.3
22897.1
21817.6
21429.1
20484.2
19298.1
18065.8
17412.4
17271.3
17235.1
16830.2
16819.8
16938.3
17107.3
17978.3
19734.9
21509.4
23160
23689.3
24918.9
24988.7
23734.9
23213.2
21560.2
19750.4
17975.2
17077.9
16900.5
16645.5
15856.8
15850.5
16655.2
16655.5
17576
20040.5
22306.4
24691.7
26177.1
28291.2
28379.3
26240.8
24748.2
22356.3
20059.2
17568.2
16633
16098.7
16642.1
13106.3
13138.5
16557.3
16102.9
16771.9
20357.5
22941.6
25429.4
28900
33245.3
33352.8
28975.2
25466.3
22989.6
20375
16750.7
17445.9
13473.7
8636.04
14893.5
17072.5
17060
12066.9
7562.56
8978.67
11540.4
11631.5
8797.73
14908.9
13562.1
17458.6
21455.9
24935.9
28684.5
30035.8
30123.7
28783
25033.1
21508.2
23466.2
18333.4
19966.9
11737.7
4543.98
7592.62
7747.87
9113.38
7714.69
12166.3
18317.2
23387.5
28113.9
31993.3
32156
32315.7
32163.9
28256.9
32704.6
26005
31610.9
23854.7
13584.3
4781.36
601.309
-9334.43
4255.17
4445.59
861.743
4973.95
4756.74
11815.4
19937.8
25920.4
32484.5
36619.5
34837.9
34896
36724.1
36546.3
36195.6
41913.9
37206.1
29511.9
18363.5
8921.96
3064.05
-6127.16
-5990.16
-9089.28
12227
15650.3
3200.34
9063.21
18401.8
13676.2
23785.2
31431.3
36057.9
38935
36390.4
27411.9
24965.9
28559.1
33109
36996.3
41738.5
44021
50064.3
50056.8
44244.2
46048.5
50056.7
50834.8
44899
38133.2
27951.8
18206.6
7606.71
6778.84
26215.9
32927.2
30481.9
26361.7
24492.6
25345.3
25985.6
27952.7
32457.5
42121.4
52832.1
58047.7
59234.9
60269.7
54442
51467.8
49395.1
50575.2
48227.2
46726
45283.4
44253.3
42952.9
41766.7
40949.9
40288.3
39702.6
39151.4
38621.5
38052.8
37451.6
36823.3
36176.5
35518.6
34864.9
34221.2
33580.3
32920.7
32216.5
31453.3
30621.7
29636.4
28355.3
26443
23069.3
16416.2
7116.4
1500.5
3662.25
7520.8
-20328.3
49922.9
77227.5
90651.4
88084.9
98422.9
106944
106677
103329
103643
89658.3
82270.9
83377.5
97899.3
103247
103090
104195
104414
103759
103830
96405
105586
94206.6
94654.8
94320.2
91944.6
84523.3
89245.3
89948.2
81746.3
83661.1
74406.1
75350.3
44614.6
19227.3
8567.27
16051.7
8815.68
4137.79
10601
19450.8
24989.2
27545.2
28960.1
30107.4
31011.4
31806.4
32508.1
33206.5
33873.3
34525.6
35176
35832.8
36482.7
37119
37731.3
38312.5
38855.3
39361
39845.8
40362.8
40955.8
41766.9
42582.1
43263.2
43898.2
45195.4
47713.4
44641.6
47146.4
50819.8
55182.5
50499.6
39763.2
30548.4
10896.5
16388.7
6197.2
2336.84
1554.64
4825.69
7982.57
4067.54
-9880.89
-4322.24
-4360.32
4302.17
7723.64
6957.21
17760.3
27842.6
37956
29398.6
29217.1
35622.6
42554.3
48488.4
54017.2
55114.9
50311.7
44610.3
50579.6
50112.4
59279.6
59105
55427
54284.1
48762.5
40342.4
51199.3
44095.8
39014.1
35933.3
35138.5
37943
42158
48205.9
56362
62040.5
62845.7
63538.4
65099.1
62002.8
63884.4
57186.6
55389.1
56379.2
52275.3
49389.8
48786.8
46460.1
45389
46456
43155
42817.4
42144.3
41480.5
40871
40270.7
39720.4
39172.8
38613.1
38047.8
37461.4
36872.3
36295.7
35741.5
35203.4
34676
34143.7
33576.9
32956
32278.9
31493.2
30402.6
28289.1
24057.4
17155.5
8946.44
11473.8
13060.7
6347.66
8761.95
15892.3
23992.7
27832.2
29943.5
31166.1
32034
32761.3
33424.4
34024.7
34586.3
35138.6
35706
36286.8
36884.9
37487.5
38078.4
38651.7
39206
39754.8
40328.8
40972.2
41673.3
42397.3
43255.2
44499
42997.8
42851.9
47348.8
43371.7
42894.1
42190.2
41475.1
40804.3
40189.3
39644.9
39112.9
38563.7
38009.4
37425.7
36844.1
36269.1
35716.4
35182
34652
34113.8
33540
32913.4
32212.9
31374.3
30182.5
28176.9
23916.9
16873.3
8620.13
10222.1
10527.8
12689.7
13778.3
-13749.8
20766.6
12332.4
51965.7
82592.4
91109.1
79054.3
90166.8
101567
102061
103905
107988
107607
104119
104016
94510.6
82306.7
90806.7
101184
104635
106159
107319
107381
106912
105951
107265
107893
108487
108363
108610
108360
108222
108313
108190
106871
105331
106708
107255
108029
108495
108914
108876
108786
108730
108730
108723
108336
107631
107925
107223
105591
103532
103695
96356.8
96248.1
92747.3
71421
57831.3
84985.4
75441.1
92767.8
95341.9
94407.3
89230.8
83560.7
92658.2
65444
57822.9
48276
34743.6
29262.5
48835.4
49197.2
62686.1
67303.3
77250.9
50713.1
23435.8
6531.43
2995.75
9201.02
18189.8
22328.8
25163.6
26538.9
27486.6
28513.7
29626.2
30692.8
31639.8
32480.1
33257.3
34013.8
34754.2
35488.4
36210.9
36910.4
37574.3
38197.4
38780.1
39315.2
39824.6
40325
40834.2
41344.9
41801.1
42373.5
43365.9
45232.9
46330.9
51812.6
53386.6
48544.5
48232.7
57495.5
53189.2
50045.7
49389.1
46772.3
45517.6
45183.7
44666.6
42944.2
41647.4
40803.1
40105.9
39504.5
38974.1
38427.1
37842.7
37230.7
36582.7
35922.9
35280.7
34651.7
34005
33339.8
32649
31922.6
31145.8
30313.3
29336.9
28105.2
26315.7
23326.9
16723.2
6770.85
1354.76
31.0722
4970.93
-25616.4
48809.7
78945.4
92259.5
94843
104354
104369
101343
104026
108210
108380
108639
109186
109108
108977
109222
109118
109044
108989
108951
108943
108953
108713
108415
108523
108140
107649
107003
105855
105049
101444
102058
95488.5
96745.9
94474.1
97398.1
95930.5
83263.1
71170.9
65225.3
54733.5
38116
28748.3
20166.1
14604.5
16308.2
21479.3
24908.7
26465.4
27794.5
29097.3
30142.2
30984.1
31680.2
32377.9
33079.5
33766.1
34441.1
35120
35788
36444.3
37075.6
37674.4
38226.1
38720.6
39151
39523.2
39844.5
40130
40392.7
40765.8
41081.9
41812.5
35380.1
37719.2
40261.6
44330.7
35609.6
21653.5
22670
17087.3
9271.11
3504.37
9039.84
3650.16
4072.18
769.827
-1174.5
-2635.37
-2883.78
-9916.54
26772.4
27156.7
38072.8
49579.7
55688.2
66516.1
71480.3
70713.9
69012.6
68212.3
68263.2
69317.3
68761.1
68926.6
73317.3
68473.8
71096.3
65940.3
67921
69107.2
62957
65183.8
58193.9
55998.8
54963.5
51960.1
49348.9
50634.4
48626.5
46750.6
45204.2
43835.7
43266.7
42462.5
41552.4
40804.5
40274.3
39807.5
39358.3
38877.3
38349.6
37778.9
37172.9
36544.8
35911.2
35280.1
34649.3
34003.7
33345.8
32686.3
32057.1
31363.9
30512.6
29467.7
28312.9
26303.7
21193.9
12245.1
4499.3
6901.44
17919.5
-2046.46
17587.2
39437.5
67851.4
74235.2
86115.4
99476.1
104158
107420
107578
105708
107195
107848
107914
108604
108588
109230
109452
109396
109323
109550
109435
109350
109264
109212
109175
109157
109143
109164
108981
108754
108834
108581
108299
107941
107453
106721
105846
102587
100592
102000
104560
106288
107013
107317
107580
107495
107315
107267
107193
107139
106968
106496
105734
102703
95480.2
87023.9
81955
68052.7
55331.5
39938.1
28774.4
22928.1
19868.4
20642.7
23932.6
26309.2
27037.7
28271
29368.3
30466.9
31320.8
31989.4
32701.1
33449.1
34182
34883.9
35569.4
36226.9
36859.6
37456
38009.9
38505.5
38928
39259.4
39471.2
39570.1
39526.5
39327.6
39207.9
39069.5
36357.5
34330.8
33928.9
31496.4
31393.6
18710.2
17324.6
7792.33
7469.12
8928.29
3036.9
3213.4
3444.58
190.881
-1579.83
1260.76
4668.22
7987
26392.5
30405.6
40138.1
50975.9
55990.6
61630.2
62533
62489.6
61980
56233.1
61067.7
65511.7
60004.8
55391.2
52756.7
50123.4
49843.5
51154.8
54340.9
59619.8
64256.3
65253.5
66942.6
68125.2
58097.1
57915.3
72253.9
66865.4
68242.3
67183.8
63398.6
63798
59874.4
60676.3
55528.2
50851.1
46820.3
44590.6
41635.1
40864.5
40623.1
40321.1
40074.1
39781.3
39463.6
39106.3
38694.2
38218.5
37674.5
37078.4
36448.7
35798.4
35144.1
34486.6
33818.7
33118.6
32395.4
31695.1
31022.8
30227.2
29183.8
27980.8
26798
25750.2
22857
17601.1
14241.4
18155.8
29260.3
37955.5
39499.9
60867.4
69653.3
82655.6
81268.9
91737.9
83964
92060
104428
106681
108228
108938
108509
108355
107536
108845
108813
109338
109256
109508
109728
109635
109608
109776
109707
109608
109511
109439
109390
109356
109341
109306
109287
109348
109218
109044
109129
108907
108668
108400
108140
107801
107358
106820
106183
105080
104400
106439
107095
107266
107579
107758
108006
107948
107789
107685
107921
107992
107922
107493
107536
107657
107383
107570
107759
108389
108081
108335
108622
108810
109011
109163
109319
109444
109563
109656
109752
109821
109875
109898
109977
70616.6
84466.1
93994.5
100703
103618
105886
108108
109434
110154
110419
110632
110759
110803
110806
110779
110754
110703
110682
110647
110610
110571
110530
110487
110446
110405
110374
110339
110298
110258
110201
110156
110111
110069
110027
109985
109945
109913
109915
109942
109975
110014
110053
110092
110128
110162
110218
110275
110311
110342
110375
110400
110458
110506
110530
110557
110609
110649
110693
110733
110750
110759
110739
110650
110450
110025
109218
107754
105222
100830
100732
93813.4
84274.3
71388.6
70092.8
83372.9
93619.3
93425.7
97698.1
101043
105120
107700
109180
109985
110397
110553
110660
110718
110726
110700
110653
110578
110510
110522
110510
110474
110407
110366
110341
110319
110262
110211
110157
110145
110126
110086
110036
110000
110011
110011
110048
110112
110155
110164
110177
110231
110269
110336
110384
110404
110446
110505
110520
110564
110521
110588
110669
110675
110648
110561
110347
109911
109118
107697
105259
100857
93476
93447.8
83564.4
83478.5
70469.7
44692.4
55329.3
69318.8
82912.8
83465.5
93304.6
100301
103284
105461
107788
109173
109928
110227
110436
110570
110622
110606
110602
110590
110557
110527
110491
110453
110412
110374
110341
110297
110263
110237
110203
110170
110164
110202
110235
110269
110291
110336
110366
110396
110439
110471
110504
110534
110547
110558
110525
110547
110455
110244
109784
108922
107387
104773
100321
100308
93237.1
83986.3
77220.4
85075.5
93927.3
93463.3
100814
105212
107719
109033
109800
110212
110424
110488
110536
110545
110524
110501
110469
110488
110466
110462
110442
110394
110382
110363
110340
110327
110345
110364
110374
110368
110418
110397
110409
110478
110517
110455
110442
110310
110354
110102
109717
110045
109703
110116
110331
110319
110112
109705
108964
108876
109175
109291
108162
106833
108026
107405
104803
105081
105074
100742
93557.7
82950.9
82783.3
69191.8
70278.2
69264.3
69953
69337.2
69166.9
83163.2
89627.4
95215.7
100836
100725
94229.5
93870.7
94462.4
82870.7
70148.6
95326.9
101778
105497
107679
107882
109071
109744
110115
110305
110195
110316
110344
110261
110082
109945
109507
108777
107603
105622
105708
101627
94249.6
94657.6
101880
101164
105401
107779
109050
109724
109713
110064
110241
110321
110344
110291
110298
110301
110300
110284
110269
110236
110117
109874
109437
108713
109036
107767
105393
101162
94165.3
94152.9
94667.5
101882
105592
107548
107803
108979
109638
109999
110181
110152
110236
110277
110270
110231
110205
110120
109921
109950
109557
108829
107566
105408
105633
101550
94196.4
76976.5
85267
95291.6
101711
100775
104693
107259
108704
109511
109831
109495
109064
108982
107861
106670
104963
100638
94165.3
95194.1
89606.2
83821.8
83127.8
82912.5
93484.1
100626
104921
105030
107496
108776
109518
109904
110098
110179
110200
110190
110173
110186
110204
110196
110203
110161
110084
109893
109457
108631
107132
104559
100157
100675
93368.1
82735.5
69238.5
77182
85030.7
93811.7
93107.5
83861.2
83361.4
93174.4
100121
103074
105232
107509
108852
109575
109840
109565
108883
107612
105475
104985
107364
108738
109493
109899
110085
110150
110161
110154
110171
110184
110149
110048
109907
109920
109544
108777
107347
104827
100818
100638
93318.1
82821.5
69286.9
69872.2
51842.7
70707.7
77921.7
85213.4
94409.1
100861
105235
107741
109229
110063
110501
110709
110805
110849
110856
110836
110796
110688
110650
110651
110640
110614
110581
110546
110508
110455
110425
110394
110359
110318
110267
110216
110167
110120
110066
110014
109964
109919
109876
109837
109804
109779
109788
109814
109842
109871
109907
109948
109992
110037
110089
110145
110189
110231
110277
110331
110363
110395
110421
110460
110507
110554
110593
110625
110660
110651
110713
110770
110797
110826
110824
110777
110647
110489
110050
109224
107764
105237
101054
94376.6
84494.1
70451.7
69923.4
53251.7
61747.5
72150.7
85750.3
94864
101155
105294
107835
109307
110123
110554
110767
110861
110891
110884
110846
110809
110807
110781
110753
110714
110680
110644
110610
110576
110541
110504
110464
110423
110384
110337
110284
110219
110164
110110
110059
109993
109945
109878
109837
109791
109743
109751
109788
109835
109882
109921
109976
110026
110086
110134
110133
110180
110226
110260
110311
110335
110408
110485
110534
110595
110617
110736
110656
110466
110060
109374
107920
105818
101199
95221.8
82990.1
71393.5
36648
43595.5
54153.3
71748.9
85275.3
94836.6
101234
105328
107866
109340
110158
110588
110800
110893
110924
110942
110924
110893
110850
110806
110775
110762
110735
110715
110686
110653
110615
110564
110516
110477
110448
110397
110348
110295
110231
110177
110107
110045
109981
109904
109851
109764
109719
109669
109619
109645
109682
109731
109780
109822
109798
109870
109931
109987
110041
110135
110190
110174
109987
109258
109306
106610
98752.9
78822.3
9355.82
15543.6
23591.1
34136.9
52031.5
61832.6
74071.4
86224.7
95068.9
101177
105279
107849
109358
110200
110650
110879
110988
111030
111048
111041
111020
110992
110919
110905
110908
110901
110883
110867
110843
110831
110801
110771
110732
110693
110643
110574
110518
110455
110398
110332
110247
110172
110079
109972
109879
109739
109589
109441
109295
109156
109062
108997
108958
108964
108985
109020
109067
109158
109192
109159
109151
109136
109276
109317
109149
109205
109266
109329
109525
109470
109597
109710
109837
109903
109805
109709
109589
109702
109799
109883
109972
110011
110042
110139
110177
110082
110138
110218
110255
110291
110365
110389
110314
110348
110409
110444
110481
110491
110548
110587
110648
110657
110592
110597
110655
110698
110733
110728
110759
110792
110808
110794
110770
110747
110720
110679
110681
110642
110596
110547
110508
110474
110426
110361
110310
110246
110167
110106
110019
109945
109868
109774
109714
109593
109540
109485
109427
109489
109532
109582
109635
109686
109644
109738
109819
109902
109949
110019
110150
110240
110294
110281
110104
110434
110205
109290
106337
98555.7
78625
28267.8
38144.2
55322.9
71778.2
85022.4
94601.3
101115
105325
107904
109392
110205
110630
110839
110934
110966
110964
110962
110932
110898
110879
110849
110824
110804
110779
110746
110713
110680
110690
110712
110733
110751
110763
110771
110743
110685
110532
110238
110462
109952
109183
107547
105454
100754
95217.8
84088.1
71504.8
53934.7
35256.2
43130.2
55023.8
72199.6
85876.7
95150.2
101321
105340
107862
109344
110179
110627
110855
110962
111003
111021
111002
110925
110873
110852
110872
110874
110854
110821
110855
110869
110879
110882
110879
110886
110878
110790
110892
110752
110484
109944
109154
107505
105403
100730
95273.6
84220.6
71802.3
54257
36042.5
33579.8
52951.7
54199.5
72734.1
86056.9
95181.1
101350
105391
107912
109385
110210
110651
110875
110979
111017
111011
110975
110879
110662
110242
109435
108024
105566
101595
95094.7
85594.1
72255.8
54915.2
54367.8
35497.6
16568.1
23860.3
36311.5
52585.2
70859
78912.1
87088.6
95186.2
101218
105331
107890
109386
110223
110670
110896
111002
111043
111065
111055
111043
111036
111016
111001
110980
110932
110899
110881
110880
110881
110860
110835
110802
110764
110716
110669
110616
110537
110472
110402
110338
110266
110157
110067
109958
109816
109659
109505
109271
109043
108824
108629
108544
108477
108422
108477
108565
108675
108850
108876
108790
108725
108669
108693
108760
108872
109066
109258
109454
109359
109532
109708
109927
110104
110286
110395
110482
110550
110580
110553
110337
109493
106693
98115.1
78524.5
42612.6
54140.1
72090.1
85789.2
94928.7
101266
104071
106343
108385
109644
110348
110586
110833
110987
111056
111071
111045
111024
111032
111041
111030
111024
111011
110998
110969
110956
110937
110915
110894
110866
110827
110787
110737
110684
110614
110554
110485
110423
110346
110245
110151
110038
109906
109768
109597
109380
109118
108873
108540
108267
108050
108045
107981
107844
107909
108045
108307
108331
108143
108016
108077
108144
108225
108496
108812
108574
108825
109157
109419
109708
109735
109850
109990
110073
110147
110220
110309
110387
110430
110464
110480
110479
110450
110349
110181
109765
109138
107696
105550
100973
94788.8
83291.9
71510.6
71960.4
85174.5
94705.9
98757.6
102034
105680
108064
109473
110265
110684
110834
110980
111069
111112
111127
111130
111128
111114
111085
111016
110995
111033
111043
111034
111020
111005
110985
110957
110924
110881
110837
110783
110730
110671
110611
110545
110449
110354
110260
110166
110066
109889
109718
109550
109252
108960
108553
108301
107825
107580
107451
107723
107679
107304
107250
107331
107616
107795
107896
107543
107664
107661
107471
107492
107772
107829
107670
107804
108087
108088
108581
108718
108331
108218
108439
108926
109289
109500
109833
109932
110045
110167
110253
110327
110382
110419
110466
110507
110570
110598
110602
110582
110492
110320
109904
109224
107721
105359
100538
94137.1
82616.9
71703.7
12898.2
23661.8
35199.5
51457.2
71254.3
73193.3
86638.7
95324.4
101369
105428
107947
109415
110234
110674
110898
111005
111044
111035
110996
110893
110679
110245
109469
108003
105655
101512
95592.2
86277.8
73098.5
71386.6
53258.6
35808.3
22880.2
13306.4
71470.5
78923.3
86406.7
94845.2
101082
103829
106248
108298
109604
110337
110575
110844
111010
111095
111138
111154
111154
111159
111145
111144
111150
111138
111118
111115
111104
111094
111078
111058
111033
111005
110970
110933
110886
110837
110780
110719
110652
110580
110516
110416
110310
110202
110058
109939
109739
109446
109258
108957
108455
108289
107943
107576
107341
107351
107492
108352
108409
107609
107309
107122
107379
107568
108236
108223
107514
107578
107475
107512
108065
108042
107478
107255
107255
107140
107245
107070
107206
107763
107801
107314
107318
107692
107569
107589
108125
108543
108578
108219
108186
108098
108378
108811
109252
109507
109771
109917
110062
110164
110246
110299
110367
110433
110509
110565
110585
110588
110547
110447
110240
109837
109095
107686
105240
100825
94102
83591.8
70737.7
91750.5
95877
101539
105529
107226
108645
109779
110166
110604
110885
111032
111108
111148
111172
111171
111159
111171
111189
111195
111203
111203
111202
111200
111185
111172
111157
111133
111107
111080
111045
111006
110963
110916
110866
110810
110751
110679
110608
110543
110452
110367
110243
110101
109977
109737
109557
109306
108828
108895
108503
108449
108171
108088
107106
104066
103079
102791
105205
103986
103088
100350
98659.4
86989.3
76848.7
63196.1
49290.7
35186.5
27519.6
25398.9
25873.1
26570
26986.6
27712.8
28511.8
29685.4
30592.5
31257.3
32024.6
32821.5
33590.8
34324.3
35037.9
35731.4
36397.5
37027.9
37607.2
38120.9
38544.8
38848.9
38969.8
38934.4
38633.2
37920
36989.3
35990.7
33626
34342.9
26807.6
28684.1
24285.7
23006
17240.9
17063.7
17116.5
16877.2
22146.9
10489.1
8837.43
15975.9
5943.71
2237.95
25607
25035.5
24550.8
35625
38783.6
43872.5
55295.3
59800.8
65303.3
64931.2
64815.9
64903.3
68497.6
66016.2
64859.6
61000
59586.9
59375.6
60223.6
62528.7
65438.6
67181.2
68834.9
70114.3
59716.1
59633
74378.4
69333.5
70174.7
69000.6
65724.9
64513.5
56479
41813.7
29980.6
39384.6
35179.9
31014.3
31223.6
33639.6
34515.7
33640.4
36053.9
37751.3
38648.8
39062.9
39156.9
39063.4
38788.3
38388
37890.2
37328
36716.6
36077
35414
34732.8
34014.5
33259.3
32478.6
31754.9
31099.1
30127.1
28804.2
27964.9
27738.1
27320.7
27393.5
27970.8
31561
41385.7
53755.5
65325.1
78325.5
89312.6
95183.4
105086
104497
104948
103234
101585
95338.6
86897.4
77501.6
64718.2
51060.7
39020.7
30200.8
27241.9
26715.7
26973.7
27511.5
27983.2
28645.4
29906.7
30886.9
31590.9
32337.5
33128.3
33897.5
34633.8
35336
36014.1
36663.6
37280
37845.5
38345.6
38754.1
39038.1
39132.7
39055.1
38660.4
37718.7
37808.2
36636.1
36581.5
34265.2
26523.2
22839.8
24158.8
18221.6
21082.5
38753.2
41447.2
47732.4
52857
62258.8
52770.7
50602.2
54943.6
52833.5
59852.6
48075.2
32009.6
27547
41922.6
37707
34985.9
49676.8
50013.5
52658
60980
64846.3
65684.2
61675.2
63491
65079.9
68986.3
66843.5
66451
66065.4
66095.2
65709.4
64963.1
65418.5
67405.3
71090.9
56618.6
58570.3
58435.5
69261
71177.7
67622.4
65810.4
62734.4
54320.8
50987.9
60175
59234.6
59503.5
65761.3
65036.5
65346.3
67396.1
69005.6
68071.8
68083.6
69018
71603.3
71232.2
72433
75604.9
69055
60365.8
59851.9
60628.5
60957.5
55875.1
51352.7
52855.8
66031.2
48398.5
49623.7
51583.4
54111.7
47407.8
45579.7
48336.4
60914.5
62752.9
62749.1
50025
49945.4
43389.5
45536.5
57901
57800.6
45404.7
39968.7
39976.5
38933.5
36290.9
28890.8
38233.3
38218.3
30692.4
23978.4
21935.9
29217.1
34450.7
36978.7
46080
32718.3
41835.2
41862
39065
32709.4
36957.9
34511.8
33125
38985.6
50560.7
35665.2
42716.4
48622.9
45819.4
51871.4
63482.5
61873.6
50017.5
51893
55859.8
55904.5
51855.3
42510.9
41222.9
37553.8
34390
48192.5
49618.2
51251.9
56027.6
48313
48091.5
34968.4
34298.6
32685.7
37498.4
32127.8
30927.6
32970.7
31397.9
22768.2
26704.3
22724.8
31344.6
42521.1
47444.6
54149
38269.9
43458.8
36374
28877.9
30633.2
38267.3
23952.1
21949.7
29269.9
29219.2
24088.7
23969.7
23913.7
24115.7
19988.4
16885.4
14980.6
18006.4
20463.2
20513.4
25908
29833.2
29917.9
28541.8
24930.1
25972.9
28667.9
28626.8
25658.7
23960.9
22741
23111.1
18702.6
18494.3
17031.6
14991.4
15437.1
17069.3
17520.8
21313.5
22124.5
23448.8
21382
20430.1
20427.3
21247.3
22329
23068.9
29175.7
29190.7
23100.3
22377.5
23505.4
25721.5
23184.8
22706.3
23889.7
27377.8
22038.1
21279.5
21447.1
20486.1
20407.8
21191.9
20586.6
21988.6
21951.6
20633.4
19962.2
19977.2
19523.9
19566.4
19878.9
21329.8
21316.3
22110.4
22139.3
21351.1
20362.2
20336.3
19440.3
18736.6
18200.4
17743.2
17292.4
17260.3
17749.5
18254.9
18826.2
19549
20439.1
19133.1
19128.5
19023.2
18556.7
18677
18550.4
18066.3
18260.1
18150.1
17763.2
17862.8
17647.6
17290
17403.9
17356.3
16913.6
16917.4
16895.4
16456.8
16409.3
16447.6
16777.9
16842
16414.3
16072.5
15849.8
15801
14965.8
15319.4
15784.2
16285.5
16023.9
15917.2
15971.9
15757.5
16230.4
16675.1
17065.8
17379.3
17591.4
17705.1
17730.6
17669.9
17492.7
17262.3
17444.6
17482.7
18762.7
20544.1
14968.8
16905
19995
18022.5
20404
18423.7
17471.4
17826.3
17313
17050.6
15524.3
15037.8
16937.5
17497.7
17611.7
17659.1
17668.1
17589.8
17393.8
17073.4
16664.3
16194.1
15683.4
15148.1
15258.5
14981.2
15432.4
15876
16305.5
16722.7
17094.9
17415.4
17676.4
17869.4
17990.7
18048.4
17860.5
15440.7
15584.4
15098.2
14976
15040.7
15493.3
15488.6
15968.6
16444.7
16910.1
17349.1
17761
18155.6
18576.5
19054.4
19566.7
20028.8
19931.3
19540.9
19819
21366.9
20467.3
19069.6
19105.8
18648
18471.8
19571.6
19465
18754.7
18214
17756.3
17309.6
17256
17744.6
18252.5
18836
17987.9
18221
17808.3
17572.2
17227.9
17345.5
16866.8
16845.7
16420.9
16768.6
16863.3
16441.1
16080.8
15854.9
15834.1
14975.8
15316
15782
16278.9
15995
15880.3
16376
15819.8
16253.4
16659.9
17021.8
17341
17613.2
17818.8
17945.5
18008.6
17527.5
17583.1
17666
17687.2
17733
17686.4
17678.6
17699.4
17574.3
17587.7
17381
17357
17040.5
17063.3
16654.8
16649.5
16201.9
16186.4
15677.8
15722.2
15382.1
14936.3
15222.8
15142.2
14568.4
14580
14738.5
14521.2
14000
14531.5
14478.6
14670
14160.6
13957.4
14657.8
15045.3
14933
15398.3
15559
15071.7
14431.7
14489.7
14127.3
14693.9
14480.6
13978.3
13941.8
12239.9
15716.4
38127.2
49674.1
55800.1
53332.1
51831.1
56026.6
61050.5
71067.8
70765
72049.2
74902.2
60625.6
60518.8
61039.5
56241.1
51876.6
49746
48453.5
48201.8
48366.4
48697
37793.2
41433.3
34682.3
35037.2
34478.1
32951.6
37350.6
33981.2
33854.7
30129.6
30196.2
27141
30913.1
31997.1
26959
37542.5
35718.8
49841.8
56936.4
53491.5
55137.8
58095.8
52126.3
50688.6
49827.4
35903.8
41075.9
40086.6
46781.5
55655.7
57512.6
52144.7
55165.6
55609.4
65262.1
52674.3
50240.9
58147.1
50530.4
44066
39898.1
37393.2
35078.3
39004.6
39177.1
39318
39528.2
39587.5
39504.7
39308.7
38993.2
38582.6
38088.7
37531.5
36931.7
36301.5
35655.9
34993.6
34309.6
33588.8
32845.6
32155.8
31525.6
30728.6
29626.3
28523.6
27369.8
27144.4
25227.4
22145
21400.3
24772.3
31519.5
42939.4
60831.2
66451.7
82235.9
88623.2
92602.7
89990.6
95198.7
87313.9
98184.9
105636
107712
108160
108789
109227
109584
109431
109252
109081
109514
109377
109639
109565
109781
109954
109873
109803
109948
109910
109850
109749
109693
109644
109533
109489
109481
109632
109598
109561
109448
109418
109254
109331
109329
109121
109134
109044
109096
109285
109442
109581
109702
109669
109625
109500
109464
109428
109452
109496
109414
109278
109336
109273
109159
108985
108800
108515
108312
108065
107771
107397
107151
107012
107699
107641
107954
108105
108209
108248
108130
108122
108155
108362
108513
108616
108566
108393
108290
108281
108141
108258
108288
108433
108573
108659
108957
109193
109399
109570
109807
109888
109867
109923
110026
22239.4
35005.8
34491.5
53073.5
71511.6
85784.5
95058.7
101434
101356
105612
108040
109474
110273
110703
110909
111004
111020
110919
110697
110248
109406
107923
105380
101344
95381.6
95046.3
86207
86391.6
85435.8
71448
53599.3
35638.8
22633.2
23999.9
22730
108995
108749
108631
108918
101787
98503
101496
104738
101741
100856
102118
101758
98942.2
99750.6
97444.6
97775.8
100419
102014
102009
104072
103740
98133.5
100319
104769
105206
104259
102069
105059
103403
105279
105597
106128
105688
104925
98587.8
103577
106274
107410
108403
107469
105363
107283
107303
108038
107994
108102
108127
107972
107876
108039
108440
108658
109052
109348
109680
109858
110045
110152
110273
110354
110432
110484
110535
110569
110608
42991.9
54887.7
72082.9
85691.5
94849.4
100923
104859
107306
108716
109481
109864
110034
110090
110086
110065
110073
110082
110032
109869
109495
108742
107344
104902
100946
94875.8
85857
72612.8
54061.8
52848.9
106737
107770
101105
106455
108610
108339
108779
109064
108651
109135
109453
109688
109891
109808
109697
109597
109813
109710
109921
109834
109997
110105
110185
110128
110066
110184
110088
110032
109968
109873
109806
109772
109708
109737
109766
109681
109643
109595
109589
109576
109551
109453
109515
109389
109242
109130
108983
108840
108641
108422
108264
108096
107658
107490
107922
107919
108163
108195
108328
108346
108390
108480
108558
108448
108335
108397
108382
108506
108618
108806
109020
109220
109575
109617
28195.5
38132
55226.9
71619.2
84820
94323.5
100742
104862
107367
108792
109548
109920
110078
110129
110108
110006
109957
110050
110092
110098
110045
109879
109499
108740
107332
104877
100851
94535.6
85029.7
71582.5
54702.6
36983
36203.8
70358.3
83320.2
93222.8
97478.7
93286.1
83449.6
70960.4
69872.4
109356
109581
110043
109973
109893
110066
109988
110138
110064
110091
110176
110287
110216
110295
110271
110240
110328
110279
110211
110136
110066
109969
109901
109872
109842
109935
109828
109695
109618
109742
109709
109754
109603
108966
108838
108659
108485
108468
108243
108124
108250
108258
108205
108376
108400
108484
108473
108498
108565
108640
108730
108812
108755
108691
108795
108874
108921
108890
108819
108780
108755
108694
108751
108777
108875
108952
109151
109335
109381
109303
109241
109212
109318
109420
109532
108877
108799
108776
108769
108743
108751
108727
108641
108621
108596
108575
108591
108660
108669
108643
108684
108682
108668
108776
108806
108894
109002
108961
108842
108729
108586
108555
108486
108396
108430
108452
108556
108569
108553
108554
108540
108560
108622
108698
108780
108862
108936
108988
109035
108997
108962
109016
109069
109040
109013
108990
108958
108980
109013
109083
109169
109238
109389
109552
109664
109860
109957
109370
102811
64234.9
61690.1
73927.8
85972.8
94734.9
100770
104791
107278
108709
109476
109857
110023
110075
110068
110050
110064
110073
110027
109869
109502
108759
107370
104934
100959
94994.4
86395.6
73018.6
71116.5
70687
78702.9
86835.5
94868.2
100818
104839
107311
108726
109486
109859
110018
110067
110075
110067
110028
109890
109534
108814
107460
105118
100947
94715.4
85927.9
85570.5
71367.8
71944.7
85571.4
94619.5
100864
103602
105823
107781
108962
109596
109780
109484
108835
107588
105456
104932
100865
94520.5
85245.3
71952.9
110161
110115
110216
110185
110285
110240
110292
110287
110319
110357
110433
110417
110365
110299
110224
110150
110068
110021
109939
109991
110066
110009
109911
109766
109702
109696
109838
109821
108858
108890
108881
108862
108852
108800
108768
108730
108719
108680
108621
108634
108593
108657
108739
108820
108905
108980
109025
109080
109133
109178
109138
109101
109151
109206
109181
109156
109135
109117
109100
109062
109072
109092
109118
109159
109227
109302