/*--------------------------------*- C++ -*----------------------------------*\
  =========                 |
  \\      /  F ield         | OpenFOAM: The Open Source CFD Toolbox
   \\    /   O peration     | Website:  https://openfoam.org
    \\  /    A nd           | Version:  7
     \\/     M anipulation  |
\*---------------------------------------------------------------------------*/
FoamFile
{
    version     2.0;
    format      ascii;
    class       surfaceScalarField;
    location    "19";
    object      phi;
}
// * * * * * * * * * * * * * * * * * * * * * * * * * * * * * * * * * * * * * //

dimensions      [0 3 -1 0 0 0 0];

internalField   nonuniform List<scalar> 
42590
(
-0.0617418
0.000140026
-0.0508036
-0.0603041
0.0487583
-0.0108481
-0.0967742
-0.00287985
0.0183412
-0.122211
0.00776336
0.0146092
-0.117508
-0.0047291
0.00973252
-0.14927
-0.00409766
0.0048035
-0.108635
1.8349e-05
0.00895326
-0.105821
-0.00213429
0.0057348
-0.0852264
0.00382118
-0.000878453
-0.0459915
0.000248077
-0.00672326
-0.0481434
-0.000308206
-0.00961774
-0.0848195
0.00351781
-0.00513401
-0.104681
-0.0024866
-0.00996026
-0.107142
3.37599e-06
-0.0146917
-0.147238
-0.00406371
-0.0183188
-0.116024
-0.00471482
-0.0484259
-0.120834
0.00773114
0.0610709
-0.0108476
-0.0958202
-0.00283038
-0.0503658
-0.0596638
-9.54764e-05
-0.0672309
0.00611446
-0.0678409
0.00609357
0.0093599
0.00011866
-0.0801217
0.00280349
0.0221017
-0.106804
-0.002715
0.0158223
-0.121802
0.00586818
0.01443
-0.111591
-0.0045249
0.0114886
-0.142862
-0.00346511
0.00761708
-0.10556
0.00079677
0.00872731
-0.104232
-0.0026993
0.00355039
-0.0833338
0.00328452
-0.000799384
-0.042935
0.00129321
-0.00455598
-0.0450827
0.00069574
-0.00945093
-0.0829096
0.00298493
-0.00792969
-0.103151
-0.00305119
-0.0116925
-0.104153
0.000773737
-0.0144834
-0.141015
-0.00343136
-0.0157672
-0.110237
-0.00450391
-0.0219787
-0.120452
0.00582806
-0.00939691
-0.105777
-0.00262546
-0.0794118
0.00289922
-0.000114406
0.00581924
-0.0855762
0.000460153
0.005768
-0.0863167
0.000309926
0.0135332
-0.112081
-0.00248911
0.0111842
-0.12311
0.00365592
0.0123399
-0.109475
-0.00327236
0.0117093
-0.139303
-0.00292863
0.00822327
-0.103067
0.000993806
0.00858311
-0.101961
-0.00263113
0.00313007
-0.0811468
0.00326568
-0.000738114
-0.0406691
0.0016017
-0.00412388
-0.0426985
0.001001
-0.00930909
-0.0806939
0.00296901
-0.00852919
-0.100942
-0.00298852
-0.0118942
-0.101759
0.000971607
-0.012409
-0.137598
-0.00290197
-0.0111634
-0.108222
-0.00325953
-0.0134465
-0.121795
0.00362589
-0.111044
-0.00236316
-0.00409161
0.00939158
-0.113978
-0.00236627
-0.000114818
-0.0887809
-0.000773595
0.00403806
-0.0895412
-0.00092906
0.00948055
-0.115002
-0.00252161
0.00835058
-0.124214
0.00223329
0.0103218
-0.108867
-0.00257904
0.0111629
-0.137514
-0.00262991
0.00822224
-0.101225
0.00109857
0.00846653
-0.0997674
-0.00243858
0.00307244
-0.0790488
0.00329543
-0.000689265
-0.0386499
0.00174185
-0.0040286
-0.0405034
0.00114354
-0.00916065
-0.0785505
0.00298817
-0.00851622
-0.0987912
-0.00279585
-0.011351
-0.0999917
0.00106708
-0.0103961
-0.135939
-0.00261366
-0.00834923
-0.107695
-0.00257364
-0.122955
0.00219974
-0.0074383
0.00685021
-0.123698
0.00133103
-0.00328766
-0.115624
-0.00250566
-0.000112174
-0.0904848
-0.0014723
0.00323563
-0.0912579
-0.00163167
0.00752224
-0.116631
-0.00265785
0.00685131
-0.124916
0.00137311
0.0089911
-0.108755
-0.00225205
0.0106011
-0.136581
-0.0025429
0.00808476
-0.099853
0.00114413
0.00834793
-0.0977955
-0.00223547
0.00310256
-0.077127
0.00332331
-0.000646373
-0.0367285
0.00182705
-0.00401483
-0.0383702
0.00123491
-0.00901239
-0.0765561
0.00300281
-0.00836673
-0.0968427
-0.00259427
-0.0107691
-0.0986901
0.00110089
-0.00906293
-0.135104
-0.00254042
-0.107656
-0.0022525
-0.00606092
0.0082442
-0.10773
-0.00210933
-0.00647948
-0.1241
0.000820706
-0.00291556
-0.116579
-0.00260888
-0.000111696
-0.091433
-0.00185606
0.00285798
-0.0922135
-0.00201436
0.00656644
-0.117585
-0.00275488
0.0060578
-0.125285
0.000877918
0.0081938
-0.10879
-0.00210099
0.0102381
-0.136089
-0.00253597
0.00795987
-0.0987359
0.0011614
0.00821828
-0.0959897
-0.0020642
0.00314774
-0.0753853
0.00332899
-0.000603161
-0.0348695
0.0018919
-0.00401176
-0.0362685
0.00130708
-0.00883996
-0.0747275
0.00299979
-0.00820364
-0.0950671
-0.00241142
-0.0103731
-0.0976212
0.00110105
-0.134677
-0.00255542
-0.00773464
0.0100582
-0.134373
-0.00262734
-0.00561473
-0.107788
-0.00206046
-0.00594414
-0.124222
0.000452412
-0.00272901
-0.117088
-0.00270515
-0.000109535
-0.0919361
-0.00211625
0.00267359
-0.0927194
-0.00227702
0.00603243
-0.118093
-0.00285079
0.00562485
-0.1254
0.000522242
0.00769785
-0.108818
-0.00204451
0.00995718
-0.135759
-0.00258937
0.00782228
-0.0977731
0.00117247
0.00807148
-0.0943477
-0.00189085
0.00318969
-0.073834
0.00333114
-0.000553479
-0.0330843
0.00195854
-0.00399147
-0.0342128
0.00138295
-0.00861252
-0.0730896
0.002984
-0.00803562
-0.0934066
-0.00223623
-0.0966816
0.00108524
-0.00973103
0.00781377
-0.0958394
0.00107532
-0.00726319
-0.134145
-0.00269371
-0.00524782
-0.107778
-0.00202445
-0.005464
-0.124051
4.61994e-05
-0.00256441
-0.117186
-0.00280106
-0.000108287
-0.092034
-0.00235774
0.00251584
-0.092839
-0.00250406
0.00556625
-0.118209
-0.00293494
0.00526185
-0.125241
0.000145323
0.00725883
-0.108811
-0.0020039
0.00967989
-0.135535
-0.00264433
0.00765481
-0.0969362
0.00118864
0.00785635
-0.0928618
-0.00168675
0.00321117
-0.0725271
0.00333921
-0.000502838
-0.0314255
0.00205606
-0.00395242
-0.0322489
0.00148677
-0.0083185
-0.0716959
0.00297369
-0.0918873
-0.00202129
-0.00750467
0.0079163
-0.0905649
-0.00173368
-0.00926876
-0.09514
0.00106669
-0.00663951
-0.13405
-0.00272254
-0.00470672
-0.107724
-0.00198556
-0.00478926
-0.123606
-0.00036184
-0.00232397
-0.116778
-0.00287218
-0.000107211
-0.0916191
-0.00263123
0.00226456
-0.0924304
-0.00277986
0.0048781
-0.117823
-0.00299835
0.00473024
-0.124806
-0.000286283
0.00665846
-0.108788
-0.0019511
0.00925375
-0.135479
-0.00265078
0.00738157
-0.0962665
0.00120284
0.00752693
-0.0916021
-0.00140436
0.00317135
-0.0715383
0.00336787
-0.000453278
-0.0299915
0.00219172
-0.00385542
-0.0304708
0.00162536
-0.0706129
0.00298076
-0.00733029
0.00366046
-0.0699582
0.00301528
-0.00703329
-0.0895426
-0.0013168
-0.00853334
-0.0946976
0.00105872
-0.00560497
-0.1343
-0.00267746
-0.00370942
-0.107794
-0.00182525
-0.00344712
-0.122862
-0.00100587
-0.00179275
-0.115507
-0.00292538
-0.000111932
-0.0902313
-0.00306832
0.00171827
-0.091053
-0.00320714
0.00351244
-0.116585
-0.0030323
0.00372869
-0.124098
-0.000923979
0.0056322
-0.108908
-0.00178328
0.00854882
-0.13581
-0.00258595
0.00694644
-0.0958785
0.00121453
0.00701184
-0.0906714
-0.000995524
0.00301743
-0.0709642
0.00342127
-0.000409632
-0.0290508
0.00248743
-0.0291281
0.00191037
-0.00326149
0.000376122
-0.0286755
0.00243276
-0.00650994
-0.0698171
0.00310939
-0.0063973
-0.0889625
-0.000691402
-0.00737045
-0.0947767
0.00105278
-0.0037876
-0.135411
-0.00247132
-0.00184792
-0.108296
-0.0014368
-0.00078507
-0.121802
-0.00212289
-0.000628174
-0.112745
-0.00291881
-0.000113999
-0.0869194
-0.00382578
0.000523098
-0.0877335
-0.00395591
0.000792294
-0.113856
-0.00299743
0.00183784
-0.123096
-0.00204729
0.0038142
-0.109499
-0.00138603
0.00740553
-0.137042
-0.00235983
0.00633989
-0.096049
0.00123609
0.00623751
-0.0901899
-0.000378695
0.00263352
-0.0708802
0.00352055
-0.0290595
0.00302048
-0.00036186
-0.00193687
-0.0306758
0.00391504
-0.00254522
-0.0298137
0.00332345
-0.00536163
-0.0703137
0.00331418
-0.00579141
-0.0887321
0.000200408
-0.00588886
-0.0958065
0.00112755
-0.000754142
-0.138563
-0.00198282
0.00168412
-0.110075
-0.000659477
0.00438945
-0.120465
-0.00404262
0.00155834
-0.107227
-0.00268664
-0.000105398
-0.0802098
-0.00504576
-0.00167569
-0.0809952
-0.00516727
-0.00445598
-0.108347
-0.00272797
-0.00174058
-0.121831
-0.00398047
0.000743911
-0.111384
-0.000599445
0.00590935
-0.140363
-0.00184465
0.0057517
-0.0971973
0.00130553
0.00510506
-0.090047
0.000503897
-0.0714438
0.00373306
6.53417e-05
-0.00336195
-0.0718413
0.00369368
-0.00037853
-0.0359527
0.00572111
-0.000721916
-0.0345962
0.0051275
-0.00360567
-0.0706974
0.00326893
-0.00671717
-0.086594
0.000973283
-0.00436648
-0.0999335
0.00177616
0.00384904
-0.145797
-0.000980775
0.00746349
-0.114583
0.000893482
0.0138677
-0.119741
-0.00712721
0.00562575
-0.0967309
-0.00225426
-8.32751e-05
-0.0673925
-0.0071082
-0.00576492
-0.068085
-0.00722779
-0.0140415
-0.0977911
-0.00227844
-0.00759036
-0.121184
-0.00709748
-0.0039061
-0.116062
0.000992787
0.00439451
-0.147848
-0.000817863
0.00672068
-0.10148
0.00195585
-0.0879494
0.00126156
0.00145563
-0.0219853
-0.0660995
-0.00132032
-0.0116665
-0.058577
-0.000141244
-0.000401523
-0.0595179
0.0122987
0.0109066
-0.0574593
0.0115551
-0.0016663
-0.0576576
-0.000463304
-0.0217079
-0.0650151
-0.00153644
0.000841894
-0.128335
0.00585062
0.00896362
-0.153579
-0.00034029
0.0121133
-0.119118
0.00138496
0.0399061
-0.137286
-0.0102468
0.00831264
-0.00203298
-0.0631031
-3.62642e-05
-0.00918538
-0.0498578
-0.00843289
-0.0503942
-0.00929448
-0.0403675
-0.0638048
-0.00205154
-0.0122856
-0.139041
-0.0102239
-0.00906077
-0.120783
0.00149497
-0.000852913
-0.155916
-0.000141355
-0.130449
0.0061275
-0.017885
0.0139279
-0.131094
0.00460105
0.00089942
0.0452242
0.00357834
-0.0675879
0.036968
0.00434862
-0.0491658
0.00874914
-0.0424792
-0.0640425
0.021655
0.00783606
-0.00134242
-0.00620461
-0.0730877
0.0189089
-0.00231658
-0.00235931
0.0152026
-0.0817725
0.00339868
-0.0611259
0.0670388
-0.0810237
-0.000320721
0.0177042
-0.000375608
0.016648
-0.00882248
-0.0649844
0.0159717
0.0362368
-0.000953318
-0.0481822
0.00407786
-0.0444464
-0.0419862
0.0175452
-0.0663601
0.00341606
0.0137576
-0.128869
0.00432327
0.0135703
-0.152157
-0.00123434
0.00795188
-0.112842
-0.000658577
-0.00941791
-0.11704
-0.00287745
8.96946e-05
-0.176472
-0.00303327
0.169996
0.00965441
-0.178408
0.171814
-0.00297151
-0.00800651
-0.11865
-0.00273034
-0.0136714
-0.114512
-0.00060629
-0.154602
-0.00105755
-0.0238054
0.0209119
-0.148822
-0.00288757
-0.140911
0.00121268
-0.0217101
0.0321707
-0.150231
-0.00114113
-0.00886939
-0.0942563
-0.000357505
0.00452546
-0.0818543
0.00733434
-0.000177533
-0.0897795
0.0134632
0.07886
-0.0876555
-0.00453485
0.0131532
-0.0035522
0.0171088
0.00226202
-0.0599391
0.00594362
0.0149723
-0.080279
0.00121012
0.0235665
-0.138462
0.000999159
0.0207782
-0.146348
-0.00302231
0.00778015
-0.0969397
-0.00290547
-0.000707359
-0.0988787
-0.00967399
0.000196479
-0.159789
-0.0175856
0.00100725
-0.161644
-0.0175752
-0.0077415
-0.100314
-0.00958865
-0.098434
-0.0029096
-0.0384674
0.00679028
-0.0612999
-0.00545715
-0.150807
-0.00431135
-0.0363204
0.00480387
-0.117264
-0.00202665
-0.0333906
-0.151157
-0.00200394
-0.0194818
-0.105856
-0.00230894
-0.0342235
-0.0869018
0.0197897
-0.00665329
0.0317776
-0.0628175
0.00346968
0.0256758
-0.0437338
-1.65958e-05
0.0114224
2.2856e-06
-0.0323274
-0.0310681
-0.0249814
-0.0316005
0.0337404
-0.00645531
0.00322334
-0.0615775
0.0803206
-0.0853291
0.0192778
0.0194702
0.00872189
0.00712528
0.0214918
-0.0924609
-0.000588091
0.0319396
-0.147562
-0.00134783
0.0382068
-0.148221
-0.00439415
0.00683855
-0.0602011
-0.00537147
-0.00630012
-0.0717427
-0.0139984
0.000348133
-0.141617
-0.0248208
0.00683425
-0.143271
-0.0248595
-0.0726829
-0.0140087
-0.108007
-0.0818503
0.0558733
-0.116222
0.0304958
-0.0174766
-0.0304367
0.0521442
-0.112406
-0.025523
-0.0509371
-0.0986974
0.00193422
-0.0546172
-0.145982
-0.00149347
-0.0174057
-0.141571
-0.00149503
-0.03395
-0.0974768
0.0271202
-0.0272294
-0.0689892
-0.000547129
0.000200759
-0.100808
0.0296438
0.0426702
0.0295213
0.0269876
-0.0989782
0.0112196
-0.0676108
0.0507537
-0.000301136
0.00125525
0.0635003
-0.102119
-0.000725924
0.033945
-0.0672775
0.017576
-0.0958799
0.0269196
0.103829
-0.138656
0.0543744
-0.00197197
0.0331797
-0.00253391
0.036259
-0.148407
-0.00223508
0.00533942
-0.00209218
-0.115211
0.0308446
0.106558
-0.0177965
-0.114267
0.0803128
-0.093644
0.00538092
0.0387935
0.0549266
-0.0379523
-0.0116233
0.0851328
-0.114692
-0.0328659
-0.010265
0.115474
-0.10391
-0.038329
0.00765725
-0.00184337
0.025816
-0.0472646
-0.0916156
0.010997
0.0305394
-0.0508315
-0.0967644
0.0524418
-0.110356
0.0146039
-0.00323395
-0.0525715
0.000372945
-0.0148486
-0.0494604
0.0785397
-0.0143156
-0.0500574
0.0795525
-0.0148065
-0.053954
0.0952498
-0.00346553
-0.150653
-0.000646803
0.0472892
-0.00220619
-0.000943936
-0.120533
-0.0269693
-0.0205618
-0.0203534
-0.0736958
-0.0723675
-0.00117143
-0.0457196
-0.0847717
-0.132495
-0.00108186
-0.0917721
-0.132265
-0.00230509
-0.0261136
0.0384718
0.000502295
-0.10463
0.080953
0.0399753
-0.0987057
-0.0483351
-0.0470387
-0.0837998
-0.00335551
0.0805943
0.00569323
-0.00835803
0.09746
-0.06971
-0.108885
-0.126954
0.117162
-0.0891435
-0.0951308
0.0259968
-0.0487734
-0.00904515
-0.0826119
0.0139258
-0.0154901
-0.0109543
-0.0774507
-0.00169078
0.00888911
-0.0123591
-0.0851746
-0.0142737
0.0310014
-0.00900268
-0.102523
-0.031738
0.0567581
-0.00766985
-0.135719
-0.0530715
0.0930035
-0.00673546
-0.11581
-0.147117
0.130187
-0.00297809
-0.0891162
-0.160152
0.130313
0.00314671
-0.0118046
-0.130623
0.0463464
0.00696632
-0.0818089
0.0754701
-0.0324199
0.0269535
-0.0547113
-0.0432301
0.052109
-0.0359775
-0.0864995
0.0121819
0.00329147
0.0163133
-0.0936945
0.0199655
-0.0346053
0.0218339
-0.0876871
-0.000825347
-0.0195644
0.0143817
-0.0550525
-0.0555339
0.0677066
-0.0448085
-0.0757364
0.00291727
0.00650107
0.0112646
-0.0899303
0.00341035
0.00153951
0.00924275
-0.105142
0.00364391
0.00731674
0.00425049
-0.0955457
0.0072148
-0.0271785
0.0103673
-0.0987493
0.00418586
-0.00845325
0.00747117
-0.10134
-0.000667701
-0.00125902
0.00451809
-0.102636
-0.00418377
0.00292493
0.00255532
-0.103038
-0.00633631
0.00546599
0.00127259
-0.102874
-0.00771492
0.00708655
0.000464635
-0.102338
-0.00864482
0.00818113
-7.1749e-05
-0.101602
-0.00937314
0.00899018
-0.000351972
-0.100707
-0.00999064
0.00967559
-0.000579688
-0.0996709
-0.0105759
0.010321
-0.000781168
-0.098477
-0.0111753
0.0109555
-0.000974001
-0.09713
-0.0118086
0.0116391
-0.00117758
-0.0955936
-0.0125031
0.0123808
-0.00141437
-0.0938173
-0.0132786
0.0132108
-0.00170882
-0.0917423
-0.0141645
0.0141554
-0.00206619
-0.0892928
-0.0151684
0.0152059
-0.00248712
-0.0863853
-0.0163116
0.0163761
-0.00297162
-0.0829249
-0.0176154
0.0176785
-0.00352271
-0.0787816
-0.0191216
0.019141
-0.00416134
-0.0738184
-0.0208637
0.0208328
-0.00493061
-0.0677759
-0.0229988
0.0228844
-0.00592625
-0.0604385
-0.0256612
0.0255423
-0.00721617
-0.0516881
-0.0289682
0.0290115
-0.00879113
-0.0412365
-0.0321208
0.0320838
-0.0104114
-0.0315708
-0.0311941
0.0331585
-0.0116239
-0.00757562
-0.0215624
0.00404057
-0.00646278
-0.00320141
-0.00298451
-0.00780995
0.00642353
-0.035264
0.0172265
0.0292737
-0.0144358
-0.0559311
0.0279304
0.0458222
-0.053085
-0.0409652
0.0188128
0.034064
-0.0678311
-0.037008
0.00616257
-0.0101306
-0.0248529
-0.0268704
0.007795
0.0069233
-0.0133843
0.0105598
-0.0196574
-0.00236525
-0.0083126
-0.0148114
-0.0171336
-0.0133488
0.00599628
-0.000958334
-0.0106222
0.00875747
-0.0135011
0.00201504
0.0189229
-0.0152115
-0.0100129
-0.00432354
0.0059595
0.0187834
-0.0058189
0.0317815
-0.0188533
-0.0069738
0.0378159
0.0324422
-0.0172552
-0.0212225
-0.0128444
0.00278826
0.0406116
0.00725569
-0.0287061
-0.00415717
0.0524573
-0.00394122
0.000156734
-0.00526079
0.00116216
-0.00388641
0.00308058
0.00349891
0.00142353
0.005589
-0.0143982
-0.00273272
0.00410236
0.00514118
-0.00301333
0.00993583
-0.0165099
0.00100614
0.01419
0.0437077
-0.0385089
-0.0127822
0.0176049
0.0159925
0.00281062
0.0064557
0.0184505
-0.00839807
0.0122627
0.00521799
0.00690704
0.00546672
0.0156894
-0.026749
0.0141947
0.00550664
-0.00247122
0.00355621
0.0131114
0.00360848
0.00960812
0.00412171
0.011746
-0.00457602
0.0122554
0.0107849
-0.00985681
-0.0238204
0.0415193
0.0441379
-0.0155019
0.0865582
-0.0300849
-0.0123512
0.0548359
-0.0077429
0.0809778
0.055213
0.0356964
-0.0172616
0.0552266
0.0229943
0.00492965
0.0585195
0.00878144
0.00516202
0.0630877
-0.0161297
0.00858684
0.0679436
-0.0362462
0.00982591
0.0722709
-0.0452604
0.00974336
0.0764671
-0.0456858
0.00937512
0.0809813
-0.0416837
0.0082083
0.0852832
-0.0373742
0.00741748
0.0889665
-0.0337473
0.00707061
0.0919926
-0.0307352
0.00684972
0.0944666
-0.0282343
0.00664221
0.0964819
-0.0260356
0.00640763
0.0981084
-0.0241192
0.00618308
0.0994217
-0.0224501
0.00596951
0.100485
-0.0210013
0.00577322
0.101363
-0.019744
0.00558785
0.102082
-0.0186364
0.00541307
0.10269
-0.0176637
0.00524695
0.103216
-0.0167927
0.00509142
0.103662
-0.0159585
0.00493704
0.104033
-0.0151523
0.0047911
0.104329
-0.0143122
0.00464365
0.104551
-0.0133585
0.00449163
0.104705
-0.0121672
0.00429957
0.104836
-0.0105168
0.00405104
0.105104
-0.00813991
0.00368917
0.106216
-0.00485575
0.00307593
0.109357
-0.00106009
0.00210516
0.11234
0.0019932
0.00223865
0.10657
0.00504216
0.00437214
0.0906946
0.0132104
0.00607386
0.0309107
0.00716569
0.152475
-0.156871
0.0294652
0.00584237
0.115504
0.0310443
0.00509946
0.0933141
0.040971
0.0011831
0.0577069
0.00455674
0.0807618
-0.159181
0.00550266
0.102201
-0.179686
-0.00190678
0.0261457
-0.0653825
-0.00567542
0.136113
-0.122045
0.0567473
-0.044669
0.125131
-0.0899989
0.0479121
0.0908775
-0.0162386
0.0187561
0.0772379
-0.00994537
0.00931319
0.0748746
0.000396834
0.000277342
0.0960417
0.00416559
-0.0114044
0.0549895
-0.031656
-0.0324633
0.0346371
0.00448413
0.0440766
-0.121095
0.00052563
0.04403
0.00034836
-0.0224422
-0.0336106
-0.0434355
-0.021585
0.0484243
-0.0327169
0.00380328
-0.0531196
0.079717
0.0263323
-0.0972652
0.0396416
-0.0372092
-0.0462299
0.0910283
-0.101846
-5.76419e-05
0.0843468
-0.128959
-0.00301577
0.143068
-0.00137682
-0.129434
0.0720893
-0.00179676
-0.110292
-0.0537517
-0.00290032
0.117882
-0.0971621
0.0605155
-0.00414607
-0.070878
-0.00179554
0.0350786
-0.0690892
0.0146687
-0.0760255
0.0367605
-0.0911904
-0.0768009
0.0582164
0.106892
-0.0932688
0.0548854
0.0379708
0.00545975
-0.0400987
0.0442532
0.072647
0.0448791
0.0207246
-0.00114823
0.00368391
-0.0206687
-0.118781
-0.0275302
0.149052
0.000802023
-0.0269521
-0.054659
-0.0375659
-0.0554799
-0.026684
-0.0574938
-0.0421367
0.00508524
0.0569795
-0.035993
-0.0954864
0.108534
-0.0345461
-0.091414
-0.0791331
0.00206064
-0.104436
-0.00208205
-0.116346
0.0851542
-0.0740091
0.000765039
-0.138329
-0.0670461
-0.000111948
-0.136064
-0.0523185
0.00128233
-0.127359
-0.0256639
0.00147086
-0.124505
0.00449867
0.00153839
-0.127064
0.033127
0.000435827
-0.133166
0.063237
-0.000374072
-0.130049
0.0900058
-0.000116335
-0.105992
0.103613
0.00251771
-0.0209277
0.0400548
0.00519542
-0.0963492
-0.0429457
0.0824063
0.0359616
0.0669202
-0.0414539
-0.0263328
0.0404906
0.00981746
-0.0970243
0.0462204
-0.0036865
0.0281571
-0.0378824
-0.00286184
-0.0196236
-0.0366563
-0.0782251
-0.00328752
0.0215753
0.0220542
-0.0972385
-0.00425829
0.0265607
-0.0306385
-0.0380823
-0.0258267
-0.00269182
-0.0464931
0.00858318
0.0102875
-0.00301716
-0.0857985
0.0196129
0.0235788
-0.00388639
-0.0958802
0.0210578
-0.00447605
-0.10682
0.0171201
-0.00464286
-0.102979
0.00795555
-0.00448321
-0.0282052
-0.0401796
-0.0319238
-0.00266998
-0.0367223
0.00556198
0.00568036
-0.00272588
-0.0432819
0.00450056
-0.0034854
0.00554481
-0.0464729
0.00208617
-0.00382674
0.00493245
-0.0478622
0.000753239
-0.0039787
0.00461549
-0.0482754
3.14999e-05
-0.00406433
0.00444668
-0.0480683
-0.000487704
-0.00411757
0.00439882
-0.047455
-0.00082059
-0.00421625
0.00442422
-0.0465705
-0.00106351
-0.00431531
0.00449488
-0.0454882
-0.00127425
-0.00440095
0.00459331
-0.0442608
-0.00146617
-0.00448773
0.00472665
-0.0428841
-0.00166795
-0.00455857
0.00484994
-0.0413524
-0.00187125
-0.0046443
0.00498371
-0.0396535
-0.0020973
-0.00471952
0.0051177
-0.0377427
-0.00235174
-0.00479823
0.00523883
-0.0355872
-0.00263186
-0.0048792
0.0053553
-0.0331404
-0.00294007
-0.00496615
0.00545941
-0.0303641
-0.00326067
-0.00508168
0.0055665
-0.0272039
-0.00359024
-0.00524484
0.00567588
-0.0235677
-0.00391947
-0.00548387
0.00576847
-0.019279
-0.00425215
-0.005834
0.00579914
-0.0139646
-0.00460216
-0.0063508
0.00564058
-0.00696937
-0.00503004
-0.00706436
0.00510154
0.00306466
-0.00566129
-0.00827447
0.00390416
0.0152396
-0.00531787
-0.00977708
0.00292189
0.0225202
-0.000642698
-0.00862169
0.00198156
0.0077098
0.0155226
-0.00634089
0.00563383
0.0071515
9.34879e-05
0.000474119
0.00221087
0.00565832
-0.000716958
-0.0278159
0.0247277
-0.0025299
-0.0111794
0.00294699
0.0132442
0.00810961
0.0248433
0.0151914
0.034673
0.0135436
0.04287
0.0123334
0.0494968
0.0116694
0.0549476
0.0111406
0.0595129
0.0106644
0.0633717
0.0102357
0.0666494
0.00984203
0.0694402
0.00947742
0.0718329
0.00913166
0.0738909
0.00880069
0.0756857
0.00848792
0.077272
0.00818094
0.0786656
0.00789372
0.0799
0.0076206
0.0809551
0.00734689
0.0817935
0.00708923
0.0823004
0.00685525
0.0822785
0.00662255
0.0813466
0.00643099
0.0788505
0.00617549
0.0740041
0.00567465
0.0652922
0.00476052
0.00349835
-0.00125362
0.0288303
-0.0503194
0.0380951
-0.00525611
0.0266468
-0.00367109
-0.0570689
-0.0329083
0.117204
-0.0488703
-0.0443612
0.0034711
-0.052739
0.000871313
0.00402144
-0.0569903
-0.00233654
0.00276184
-0.0588993
-0.00409251
0.00202374
-0.0594435
-0.00510105
0.00158187
-0.0592048
-0.00571064
0.00135556
-0.0585447
-0.00613475
0.00125953
-0.0576249
-0.00646257
0.00122822
-0.056519
-0.0067405
0.00123418
-0.0552656
-0.00700852
0.00126759
-0.0538615
-0.00727476
0.00131203
-0.0523027
-0.0075655
0.00136204
-0.0505488
-0.00788991
0.00141595
-0.0485634
-0.00824116
0.00145714
-0.046317
-0.00861724
0.00149193
-0.04375
-0.00903354
0.00150172
-0.0408158
-0.00949098
0.00147756
-0.0374511
-0.010008
0.00140214
-0.0335677
-0.0106082
0.001246
-0.028994
-0.011349
0.000948017
-0.0234382
-0.0122994
0.00040191
-0.0165342
-0.0136208
-0.0003352
-0.0080837
-0.0155389
-0.00116906
0.00330104
-0.0183126
-0.00282609
0.0150152
-0.0147403
-0.00557272
0.0039725
0.00457506
0.000146492
0.00507854
-0.000976147
0.0038364
-0.00188837
0.00312133
0.00125083
0.00303418
-0.000430593
0.0142856
0.0105589
-0.000264113
-0.0233368
-0.0444874
0.0500588
-0.00204022
0.0107794
0.00319297
-0.0588708
0.0111856
-0.0725157
0.0717263
0.0039893
-0.0500047
-0.00839967
-0.0141217
-0.044946
0.019305
-0.0524673
0.0281065
0.0411551
-0.0171173
-0.0325098
-0.0364872
-0.00415044
0.00574054
-0.0349551
0.000269311
0.0273473
0.00319172
0.000307884
-0.0136102
-0.0217216
4.58019e-05
-0.0132864
0.000546776
-0.0208237
0.0338725
-0.0219944
0.0111168
-0.00240849
-0.00348672
0.00424373
-0.0175532
-0.00519745
0.0182688
-0.0115879
-0.0037073
-0.00645675
0.00619632
0.0163419
-0.00426903
0.0214997
-0.0105655
-0.00474018
0.0516458
0.0157841
-0.0353739
-0.0453829
0.0182022
0.0505427
0.0282917
-0.0318714
0.0387836
-0.0365325
-0.0044208
-0.0030425
-0.00444229
0.00306465
-0.00534801
-0.000106117
0.00424039
0.00334463
0.00517697
-0.0181082
-2.41342e-07
0.00917222
0.00351845
-0.0084499
0.0101624
-0.0112587
-0.00483865
0.0272369
0.00375041
-0.0206384
-0.000198687
-0.0140461
0.0391592
0.00240533
-0.000241386
-0.0135157
-0.00353798
-0.00574783
-0.0143077
0.000119153
-0.000883884
-6.4804e-05
-0.0096243
-0.00373254
-0.0028234
-0.0116606
-0.00395319
-0.00261578
-0.00376475
-0.00803193
-0.00430733
0.00950704
-0.000719418
-0.00709613
0.00879483
-0.00662105
-0.00319528
-0.00328669
0.0155781
0.00528426
-0.00522632
-0.00684066
0.0143616
-0.00716449
-0.0148022
-0.00106398
-0.00372364
-0.0125618
-0.00721233
-0.00276933
0.0123591
-0.0099498
-0.00579144
-0.00131127
0.00212653
0.000385686
-0.00784059
-0.000724519
-0.00389704
-0.00158651
0.0016875
-0.00600698
-0.00292607
-0.00537373
-0.00237467
-0.00507691
-0.00209661
-0.00432741
-0.00534247
0.000558078
0.00673701
0.0088276
-0.00692776
-0.00405743
-0.00217088
0.0113927
-0.00556431
0.0060052
-0.0030064
-0.00742078
0.00889813
-0.00530021
0.0104003
-0.00804251
-0.00619962
-0.00357983
0.0146196
-0.00900246
-0.00523377
0.0147612
-0.0117755
-0.00722158
0.00176485
-0.00426344
0.0104113
-0.00379866
-0.00484842
0.0300908
0.0272621
-0.0299257
-0.0170166
-0.00461648
0.00170702
0.0364725
-0.00347771
0.0395149
-0.0140879
-0.0143225
-0.0263047
0.000766943
0.0793714
-0.00381318
0.00363416
-0.0139968
0.00654732
-0.0170953
0.00837135
-0.00757617
0.00390411
0.0296557
-0.0430806
0.0118848
0.014871
-0.0483296
0.0175227
0.00958454
-0.0113195
-0.00467637
0.0602229
0.0726901
0.0765273
-0.050346
0.0405547
-0.0792002
-0.0111437
0.0155243
0.0449886
0.0233137
0.0117494
0.022464
0.0279543
-0.0733127
0.0116231
0.0079009
-0.00392289
0.0030568
0.0124886
0.00706771
0.0114771
0.00548397
-0.0159546
0.0175395
-0.00650318
0.0150444
-0.0151261
0.0615131
0.0201828
0.159844
-0.00305047
0.117062
-0.104166
-0.149507
0.146817
-0.00121531
0.0976583
0.0266636
-0.110084
0.12016
0.000263128
0.0764841
0.0168298
-0.06692
0.0922872
0.00196818
0.0573732
-0.00888826
-0.0225779
0.0783895
0.00187984
0.0395309
-0.0191392
-0.00837278
0.0652092
0.00226811
0.0258214
-0.014573
-0.000347065
0.0555562
0.00140377
0.0186156
-0.0107986
0.000430364
0.0461505
0.000984927
0.0132484
-0.00612146
0.00129406
0.0407942
0.00147513
0.0120654
-0.00453366
-0.0036475
0.039279
0.00207952
0.011339
-0.00452605
-0.00737362
0.0413011
0.0025659
0.0111215
-0.00551717
-0.0101887
0.0454652
0.00281858
0.0110801
-0.00654049
-0.0115186
0.050608
0.0029439
0.0112463
-0.00724841
-0.0120813
0.0559389
0.0029805
0.0116256
-0.00764825
-0.0122858
0.0610585
0.00294447
0.0121641
-0.00786077
-0.0123651
0.0657972
0.00286324
0.0127699
-0.00797204
-0.0123982
0.0701046
0.00276628
0.0133353
-0.00802343
-0.0123848
0.0740249
0.00267482
0.0137494
-0.00803503
-0.0123094
0.0775711
0.0025927
0.0140579
-0.00802178
-0.0121754
0.0807816
0.00252377
0.0142675
-0.00799187
-0.0120103
0.0836959
0.00246251
0.0143515
-0.00792185
-0.0118068
0.0863429
0.00240637
0.0143647
-0.00781902
-0.0115991
0.0887166
0.00234961
0.0143414
-0.00767727
-0.0113872
0.0907898
0.00229654
0.014353
-0.00749822
-0.0112241
0.0925447
0.00224689
0.0144353
-0.00727266
-0.0111638
0.0938705
0.00220896
0.0146948
-0.00697474
-0.011254
0.0946097
0.00217937
0.0152771
-0.00655264
-0.0116422
0.0944813
0.00214989
0.0163753
-0.00589639
-0.0124999
0.093017
0.00210242
0.0181846
-0.00481144
-0.0140112
0.0897326
0.00198588
0.0211073
-0.00300453
-0.0168042
0.0956938
0.00154664
0.0232277
-0.00190495
0.0880071
0.00205307
0.0248676
-0.0112788
0.0808718
0.00146649
0.0300489
-0.00726083
0.0701625
0.000571821
0.04569
-0.0144965
-0.000939305
0.052922
-6.44726e-05
0.0378552
0.0707761
0.00667001
-0.000574724
0.044626
0.0304181
-0.00987408
0.0443365
-0.0583847
-0.00707104
-0.0348337
0.107546
-0.044988
-0.0545049
0.00677739
-0.0991042
0.0185112
0.0222004
-0.11106
-0.011568
0.019047
-0.123283
-0.00660753
0.0141865
-0.013768
0.00320578
-0.115913
0.0987634
0.00197763
0.00140392
-0.103638
0.006037
0.00839202
-0.0267049
-0.106093
0.00272568
0.00505747
-0.00532861
-0.108185
-0.0024563
0.00185947
0.00268871
-0.109164
-0.00600181
-0.000264963
0.00724537
-0.109488
-0.00820077
-0.00139277
0.00991761
-0.109373
-0.00959168
-0.0020931
0.0115698
-0.109009
-0.0105257
-0.00251679
0.0126783
-0.108446
-0.0112531
-0.0028128
0.0135038
-0.107732
-0.0118769
-0.00305192
0.014216
-0.106889
-0.0124759
-0.00326779
0.0149012
-0.105884
-0.0130977
-0.0034875
0.0155799
-0.104709
-0.0137564
-0.00372238
0.0163042
-0.103369
-0.0144725
-0.003985
0.0171172
-0.101829
-0.0152764
-0.00429186
0.0180271
-0.0999892
-0.0162013
-0.00465593
0.0190176
-0.0977744
-0.0172564
-0.00507585
0.0201176
-0.0951096
-0.0184699
-0.00555285
0.0213584
-0.0918848
-0.0198737
-0.00609795
0.0227476
-0.087968
-0.0215194
-0.00672863
0.0243322
-0.0832173
-0.023454
-0.00748634
0.0261912
-0.0773992
-0.0258672
-0.0084411
0.0284923
-0.0702648
-0.0289811
-0.00963534
0.0314851
-0.061525
-0.0328825
-0.0110684
0.0352142
-0.0505302
-0.0367837
-0.0126247
0.0384175
-0.0397721
-0.0365869
-0.0145054
0.0403413
-0.0148073
-0.0266771
-0.00975258
0.0114792
-0.00457554
-0.00670897
0.00192646
-0.00544265
-0.0299461
0.0124419
0.0235061
-0.051503
0.026944
0.044663
-0.0482755
0.0305946
0.0379142
-0.0444189
-0.012266
-0.0249868
0.00432859
0.00584151
-0.0295975
0.0117451
-0.0197759
-0.0154955
-0.00145506
-0.0215363
-0.0363145
-0.005985
-0.010692
-0.00486128
0.0168483
-0.0184463
-0.00438402
-0.0111798
-0.00449499
-0.0222658
-0.00251525
0.00445576
-0.00387393
-0.0176256
-0.00522172
-0.0146323
-0.0025224
-0.0097263
-0.0011872
-0.00378201
0.000129996
-0.000940832
-0.0070458
-0.00186927
-0.000572817
-0.00701431
-0.00190825
-0.0085769
-0.00197129
-0.000980313
0.000247822
-0.00652578
-0.00131812
-0.00099384
-0.00449307
-0.00150216
-0.00202263
-0.00402632
-0.000319225
-0.00170423
-0.00381734
-0.00157864
-0.00341858
-0.00410693
0.000477786
-0.00332206
-0.00549242
-0.00153339
0.00522734
-0.00423148
-0.0032625
-0.00105541
0.00676403
-0.0039444
-0.00165107
-0.00476131
-0.00208518
0.00663187
-0.00550114
-0.00438754
-0.00150389
0.00845395
-0.00564111
-0.0023824
0.0104372
-0.00754644
-0.0034412
0.0119587
-0.00977779
-0.00352086
0.0108285
-0.00267392
0.0273671
-0.0132621
-0.00327869
0.0024891
-0.00504831
0.0271953
-0.0208352
-0.00387258
0.0448205
0.0500751
-0.0465255
-0.0211756
0.0774285
-0.0319422
-0.000686314
-0.0186262
0.0908529
0.00519659
0.0286171
0.00283057
0.0332505
-0.00292908
0.0246034
-0.0443088
0.0518002
0.00116005
0.0825136
-0.0206804
0.0853399
0.039947
0.0366104
0.110456
0.0491823
0.00667136
0.108839
0.0296976
0.0076222
0.114382
0.0109791
0.00647951
0.125227
-0.00673391
0.00466872
0.130468
-0.0248274
0.00344853
0.132419
-0.0384358
0.000229172
0.132438
-0.0438867
-0.00140218
0.132522
-0.0432514
-0.00252403
0.133926
-0.0395533
-0.00353702
0.136186
-0.0356287
-0.00400734
0.138267
-0.0317812
-0.0040471
0.140044
-0.0286079
-0.00390377
0.141464
-0.0259804
-0.00367338
0.142591
-0.0237453
-0.0034175
0.143471
-0.0218655
-0.00313333
0.144153
-0.0202971
-0.00283536
0.144676
-0.0189882
-0.00253684
0.145071
-0.0178828
-0.00225701
0.145386
-0.0169525
-0.002
0.145628
-0.0161312
-0.00177456
0.145796
-0.0153913
-0.00156929
0.145928
-0.0147008
-0.00138873
0.146018
-0.0140127
-0.00122962
0.146087
-0.0132898
-0.00109024
0.146171
-0.0124722
-0.000969762
0.146356