/*--------------------------------*- C++ -*----------------------------------*\
  =========                 |
  \\      /  F ield         | OpenFOAM: The Open Source CFD Toolbox
   \\    /   O peration     | Website:  https://openfoam.org
    \\  /    A nd           | Version:  7
     \\/     M anipulation  |
\*---------------------------------------------------------------------------*/
FoamFile
{
    version     2.0;
    format      ascii;
    class       volVectorField;
    location    "19";
    object      U;
}
// * * * * * * * * * * * * * * * * * * * * * * * * * * * * * * * * * * * * * //

dimensions      [0 1 -1 0 0 0 0];

internalField   nonuniform List<vector> 
15010
(
(-0.142346 -0.223865 -10.3731)
(0.069352 -0.31411 -10.4684)
(-0.246661 -0.465707 -10.4585)
(-0.562374 -0.406933 -10.0739)
(-0.688001 -0.259137 -9.37924)
(-0.81221 0.190646 -8.68918)
(-0.547676 0.364055 -7.42355)
(-0.284233 0.369622 -6.3071)
(0.0153102 0.239984 -4.27916)
(-0.0485892 -0.349819 -4.47608)
(-0.328898 -0.366821 -6.27285)
(-0.568137 -0.34941 -7.33588)
(-0.80977 -0.181931 -8.55984)
(-0.681753 0.261043 -9.2443)
(-0.558722 0.406364 -9.94111)
(-0.24971 0.460106 -10.3396)
(0.057994 0.31059 -10.3668)
(-0.154551 0.240456 -10.2801)
(0.0968165 0.395367 -10.6611)
(0.104469 -0.369618 -10.756)
(0.131857 -0.373716 -10.8461)
(0.108625 -0.335065 -10.5794)
(-0.223319 -0.574117 -10.3658)
(-0.495258 -0.407124 -9.98119)
(-0.66738 -0.257977 -9.31577)
(-0.787942 0.186263 -8.6198)
(-0.513904 0.355539 -7.3532)
(-0.254629 0.362737 -6.16735)
(0.0510769 0.237257 -4.06762)
(-0.0190059 -0.340816 -4.26639)
(-0.299893 -0.362729 -6.13095)
(-0.535359 -0.341048 -7.26286)
(-0.786437 -0.178293 -8.48857)
(-0.661065 0.259489 -9.17824)
(-0.491735 0.406826 -9.84533)
(-0.223886 0.566274 -10.2412)
(0.0980519 0.329611 -10.4734)
(0.124602 0.399465 -10.7498)
(0.144776 0.410263 -10.7878)
(0.152746 -0.385867 -10.8835)
(0.137558 -0.376431 -10.6259)
(-0.19956 -0.626558 -10.3974)
(-0.455373 -0.415849 -9.95488)
(-0.642045 -0.25947 -9.26842)
(-0.763901 0.199073 -8.5542)
(-0.484386 0.357438 -7.25292)
(-0.227093 0.357856 -6.03519)
(0.0710125 0.240694 -3.86965)
(0.000235748 -0.337363 -4.06243)
(-0.271886 -0.35947 -5.99408)
(-0.507036 -0.342846 -7.16135)
(-0.763588 -0.191565 -8.42091)
(-0.636411 0.260773 -9.12918)
(-0.452948 0.416249 -9.81698)
(-0.19915 0.617667 -10.2692)
(0.127281 0.367518 -10.5185)
(0.155848 0.395136 -10.5527)
(0.169196 0.413863 -10.8037)
(0.177857 -0.390464 -10.8997)
(0.166028 -0.406262 -10.6618)
(-0.182531 -0.661417 -10.4141)
(-0.426827 -0.426902 -9.94909)
(-0.6224 -0.262334 -9.23504)
(-0.743217 0.216988 -8.48346)
(-0.458802 0.362281 -7.14637)
(-0.202663 0.35722 -5.90707)
(0.0837016 0.247948 -3.69257)
(0.0137563 -0.338942 -3.87111)
(-0.24679 -0.359948 -5.86065)
(-0.482706 -0.347758 -7.05444)
(-0.744391 -0.20985 -8.34911)
(-0.617583 0.263251 -9.0946)
(-0.425326 0.427617 -9.80961)
(-0.18134 0.652084 -10.2832)
(-0.162824 0.672992 -10.2922)
(0.187161 0.415245 -10.5834)
(0.200732 0.416869 -10.8276)
(0.20942 -0.395032 -10.9254)
(0.196961 -0.427788 -10.6943)
(-0.164525 -0.68257 -10.4249)
(-0.403551 -0.436986 -9.95184)
(-0.609402 -0.264527 -9.21227)
(-0.726997 0.237304 -8.41462)
(-0.437912 0.368138 -7.0367)
(-0.180752 0.359421 -5.78159)
(0.0917273 0.258044 -3.52107)
(0.0229418 -0.34473 -3.68146)
(-0.224534 -0.364056 -5.72972)
(-0.462766 -0.35462 -6.94443)
(-0.729177 -0.230965 -8.279)
(-0.604902 0.264947 -9.07057)
(-0.402747 0.437794 -9.81104)
(-0.384566 0.44685 -9.81111)
(-0.146496 0.687336 -10.296)
(0.216499 0.430728 -10.6121)
(0.231845 0.421587 -10.8589)
(0.240403 -0.40098 -10.9583)
(0.225902 -0.4441 -10.7245)
(-0.148582 -0.697002 -10.4302)
(-0.384829 -0.446021 -9.95294)
(-0.602316 -0.264576 -9.19179)
(-0.715072 0.260001 -8.34567)
(-0.422014 0.373719 -6.92626)
(-0.16005 0.362333 -5.66063)
(0.0972043 0.269373 -3.35146)
(0.0293571 -0.35283 -3.49065)
(-0.20322 -0.369426 -5.6018)
(-0.44706 -0.36124 -6.83156)
(-0.717971 -0.254149 -8.20783)
(-0.598141 0.264677 -9.04865)
(-0.592381 0.264144 -9.02689)
(-0.368894 0.45742 -9.80796)
(-0.130693 0.699345 -10.2926)
(0.245289 0.44462 -10.6342)
(0.263665 0.427087 -10.8871)
(0.27211 -0.407819 -10.9879)
(0.254399 -0.458713 -10.7481)
(-0.132881 -0.709081 -10.4277)
(-0.368399 -0.456665 -9.95044)
(-0.595662 -0.264699 -9.17112)
(-0.700333 0.284278 -8.27503)
(-0.407061 0.378208 -6.81593)
(-0.138786 0.366101 -5.54688)
(0.102908 0.281685 -3.18436)
(0.0357668 -0.361215 -3.29937)
(-0.180752 -0.374545 -5.48021)
(-0.433157 -0.365687 -6.71829)
(-0.704648 -0.278177 -8.13548)
(-0.686813 -0.304449 -8.06347)
(-0.585617 0.262195 -9.00697)
(-0.352625 0.468837 -9.80326)
(-0.112263 0.710222 -10.2821)
(0.274773 0.457764 -10.6497)
(0.297967 0.432608 -10.9105)
(0.30635 -0.414567 -11.0127)
(0.283521 -0.472554 -10.7651)
(-0.114638 -0.720122 -10.4182)
(-0.351439 -0.46815 -9.94628)
(-0.588069 -0.2634 -9.15191)
(-0.68121 0.310578 -8.20381)
(-0.390702 0.380284 -6.70683)
(-0.114499 0.369542 -5.44274)
(0.112372 0.29336 -3.0224)
(0.0451892 -0.368857 -3.11074)
(-0.155338 -0.379295 -5.36913)
(-0.417817 -0.36819 -6.60675)
(-0.397416 -0.367639 -6.5013)
(-0.659755 -0.33287 -7.99278)
(-0.573094 0.258259 -8.98653)
(-0.331381 0.481795 -9.79199)
(-0.0863043 0.721391 -10.2591)
(0.306071 0.471633 -10.6504)
(0.336609 0.437914 -10.9177)
(0.345155 -0.421356 -11.021)
(0.314763 -0.486667 -10.7671)
(-0.0890523 -0.731116 -10.3961)
(-0.329891 -0.481234 -9.93547)
(-0.57499 -0.259966 -9.13178)
(-0.653016 0.338929 -8.13347)
(-0.36932 0.378885 -6.60362)
(-0.0850775 0.371646 -5.35468)
(0.13024 0.302088 -2.87505)
(0.0621756 -0.373738 -2.9334)
(-0.124839 -0.38267 -5.27501)
(-0.0867619 -0.383373 -5.20814)
(-0.365694 -0.363048 -6.41039)
(-0.615693 -0.363017 -7.92661)
(-0.545177 0.252935 -8.96274)
(-0.297085 0.494286 -9.76686)
(-0.0453005 0.729604 -10.2165)
(0.347131 0.484047 -10.6225)
(0.388979 0.440329 -10.8911)
(0.397634 -0.425573 -10.9956)
(0.355425 -0.499357 -10.7405)
(-0.0479122 -0.739409 -10.3532)
(-0.295275 -0.494306 -9.91033)
(-0.546571 -0.255186 -9.10785)
(-0.608044 0.368933 -8.0671)
(-0.336859 0.372883 -6.5148)
(-0.0478224 0.371328 -5.2926)
(0.163073 0.304861 -2.75973)
(0.0931754 -0.373149 -2.7839)
(0.148558 -0.365805 -2.67856)
(-0.0377023 -0.382364 -5.17959)
(-0.312705 -0.352746 -6.34572)
(-0.540777 -0.392495 -7.86885)
(-0.484836 0.247395 -8.93414)
(-0.234578 0.507244 -9.72121)
(0.0274029 0.733626 -10.1461)
(0.407464 0.494272 -10.5603)
(0.468743 0.436371 -10.8266)
(0.477702 -0.424542 -10.932)
(0.415359 -0.509595 -10.6794)
(0.0254156 -0.743882 -10.2821)
(-0.232632 -0.508473 -9.86395)
(-0.485751 -0.250324 -9.07856)
(-0.532608 0.398295 -8.00843)
(-0.283563 0.360716 -6.45225)
(0.000818619 0.369827 -5.2678)
(0.220919 0.299485 -2.6934)
(0.308528 0.291912 -2.69808)
(0.235644 -0.357693 -2.63924)
(0.0249817 -0.386272 -5.19502)
(-0.226174 -0.334188 -6.31971)
(-0.419174 -0.414941 -7.83231)
(-0.371581 0.243956 -8.91237)
(-0.123144 0.521336 -9.66112)
(0.151207 0.739438 -10.0506)
(0.489212 0.505985 -10.4575)
(0.586111 0.425611 -10.7281)
(0.595431 -0.417813 -10.8346)
(0.495975 -0.521478 -10.5771)
(0.149666 -0.751261 -10.1851)
(-0.121058 -0.52423 -9.80231)
(-0.371596 -0.247783 -9.05561)
(-0.410621 0.420705 -7.96998)
(-0.196429 0.33969 -6.42925)
(0.0639051 0.374901 -5.28706)
(0.140777 0.398097 -5.33288)
(0.430925 0.288652 -2.873)
(0.361793 -0.353882 -2.76935)
(0.100897 -0.405083 -5.24139)
(-0.100778 -0.312094 -6.33214)
(-0.243863 -0.43094 -7.8349)
(-0.185804 0.240857 -8.91633)
(0.0607484 0.52391 -9.6126)
(0.346674 0.749622 -9.965)
(0.621953 0.519315 -10.3134)
(0.758643 0.412575 -10.5568)
(0.768119 -0.410662 -10.6644)
(0.62782 -0.535504 -10.4322)
(0.345942 -0.763842 -10.0989)
(0.0629029 -0.529412 -9.75295)
(-0.184956 -0.245864 -9.05865)
(-0.235183 0.435786 -7.9711)
(-0.0708504 0.316431 -6.44023)
(0.0793132 0.313388 -6.44445)
(0.227493 0.403934 -5.38915)
(0.657195 0.22556 -3.49277)
(0.593014 -0.286735 -3.35987)
(0.189253 -0.407114 -5.30539)
(0.0517624 -0.307262 -6.34055)
(-0.0173765 -0.450325 -7.88607)
(0.065608 0.229226 -8.92717)
(0.309427 0.508736 -9.60952)
(0.641745 0.721609 -9.97407)
(0.8992 0.480073 -10.1545)
(1.08633 0.359901 -10.249)
(1.0956 -0.365992 -10.3576)
(0.904968 -0.496876 -10.2715)
(0.641496 -0.738375 -10.1086)
(0.310793 -0.516692 -9.75057)
(0.0667963 -0.235341 -9.06919)
(-0.00935552 0.454966 -8.02181)
(0.246577 0.468428 -8.06214)
(0.518866 0.650268 -6.76449)
(0.374487 0.737111 -4.78638)
(0.286296 0.335584 -6.10766)
(0.353558 -0.480688 -6.99792)
(0.862513 -0.530322 -7.22697)
(0.907802 0.617926 -7.05917)
(0.996514 0.76962 -5.3029)
(1.55471 0.0265939 -4.562)
(1.10438 -0.0281155 -4.07075)
(1.03899 -0.0258005 -3.94426)
(0.330541 -0.716406 -4.68523)
(0.259747 -0.324165 -6.00759)
(0.500439 -0.639193 -6.63972)
(0.241563 -0.463217 -7.92618)
(0.380908 0.207737 -8.89729)
(0.581595 0.489808 -9.57092)
(0.983876 0.547162 -9.95371)
(1.69277 0.233991 -10.1556)
(1.69916 -0.256202 -10.2667)
(0.983016 -0.56593 -10.0877)
(0.581029 -0.500265 -9.7113)
(0.381513 -0.214526 -9.03878)
(0.787981 -0.245438 -9.01133)
(0.684053 0.342357 -8.22096)
(1.28999 0.222207 -8.2777)
(1.54019 0.587647 -7.27607)
(1.73619 0.783026 -5.67071)
(2.06717 0.10362 -4.92814)
(2.00358 -0.120113 -4.80144)
(1.4876 -0.0667488 -4.43411)
(0.952393 -0.745761 -5.19919)
(0.889377 -0.604124 -6.93172)
(0.681128 -0.338412 -8.08242)
(0.787182 0.236106 -8.86926)
(0.966885 0.469026 -9.42518)
(1.36538 0.451897 -9.66331)
(1.98147 0.18657 -9.98367)
(1.98484 -0.218481 -10.0905)
(1.36359 -0.474935 -9.79569)
(0.965766 -0.483991 -9.56446)
(1.48013 -0.500414 -9.31227)
(1.33746 -0.287642 -8.96391)
(2.01953 -0.237553 -8.75083)
(2.00306 0.118662 -8.15636)
(2.35941 0.544137 -7.35111)
(2.67338 0.905948 -5.85725)
(3.06461 0.496449 -5.40024)
(3.60528 0.97003 -4.14325)
(2.72223 0.29176 -5.3117)
(2.66293 -0.281643 -5.18557)
(3.01815 -0.475843 -5.29033)
(2.63281 -0.865187 -5.75005)
(1.69398 -0.751973 -5.56673)
(1.52265 -0.569395 -7.14278)
(1.28934 -0.220987 -8.13512)
(1.33749 0.274338 -8.81823)
(1.48114 0.480189 -9.17329)
(1.83765 0.415035 -9.3056)
(2.28818 0.20868 -9.8001)
(2.29114 -0.259488 -9.90887)
(1.83804 -0.441342 -9.44058)
(2.33731 -0.57385 -9.08603)
(2.42339 -0.580803 -8.83012)
(2.94054 -0.467273 -8.4931)
(2.77076 -0.266186 -8.2547)
(2.86727 0.00786812 -7.80694)
(3.29026 0.426813 -7.20893)
(3.71719 0.758324 -5.79853)
(3.80869 0.56775 -5.52221)
(4.63305 0.704761 -4.30404)
(4.56731 -0.64496 -4.19301)
(3.52704 -0.961163 -4.02305)
(3.04274 0.412175 -6.6055)
(4.1393 0.403381 -6.43993)
(3.76328 -0.527314 -5.40508)
(3.67893 -0.702254 -5.68531)
(3.28016 -0.402547 -7.05695)
(2.34436 -0.521154 -7.21016)
(2.00353 -0.120959 -8.00878)
(2.01932 0.220821 -8.6015)
(2.43275 0.552906 -8.68433)
(2.63401 0.408302 -8.97407)
(2.34198 0.539923 -8.94592)
(1.6261 0.148789 -9.21959)
(1.92055 0.0883877 -8.55303)
(2.36703 -0.00873491 -8.36654)
(2.9626 -0.0493725 -8.05822)
(2.77446 0.24027 -8.10155)
(2.95429 0.431796 -8.34122)
(3.06286 0.27077 -8.65641)
(3.10749 0.19003 -8.73768)
(3.10386 -0.283178 -8.8554)
(3.05475 -0.336899 -8.78707)
(3.77234 -0.10092 -8.48325)
(3.86321 -0.104781 -8.23269)
(3.48199 -0.311367 -7.86562)
(3.44113 -0.269849 -7.67489)
(3.73925 -0.0765543 -7.21025)
(4.21519 0.343493 -6.53984)
(4.99523 0.547258 -5.58979)
(5.57434 0.820559 -4.07005)
(4.79831 0.468384 -5.43265)
(5.02019 -0.608786 -5.8802)
(6.26578 -0.867236 -4.9266)
(5.84343 0.39701 -4.68477)
(6.63795 0.4412 -3.31465)
(7.21943 0.175761 -1.4396)
(7.38366 0.0125568 0.482047)
(7.21623 0.0225879 2.52638)
(6.83995 -0.047285 4.3069)
(6.1837 -0.076743 5.75831)
(5.21451 -0.00734026 6.89374)
(4.15013 0.0268671 7.33782)
(3.27197 0.0762025 7.44985)
(2.81041 0.313387 6.01096)
(2.47006 0.384164 6.564)
(1.95377 0.298406 6.44364)
(1.8247 0.262731 6.94036)
(1.54118 0.326939 7.39242)
(1.07477 0.431799 7.63253)
(0.831907 0.309084 7.17248)
(0.662956 0.306256 7.42294)
(0.431314 0.316842 7.59759)
(0.211434 0.338866 7.7326)
(-0.00992897 0.347059 8.13791)
(-0.170507 0.330895 8.35051)
(-0.284326 0.335797 8.45122)
(-0.365701 0.355091 8.47565)
(-0.424461 0.378312 8.46288)
(-0.467674 0.400463 8.423)
(-0.504519 0.420928 8.36437)
(-0.537816 0.441519 8.29388)
(-0.570437 0.463044 8.21264)
(-0.60396 0.485984 8.12131)
(-0.639277 0.510604 8.01923)
(-0.677352 0.536921 7.90524)
(-0.719498 0.565348 7.7772)
(-0.767159 0.596041 7.63221)
(-0.820858 0.628491 7.46674)
(-0.8818 0.662973 7.27656)
(-0.950853 0.69952 7.05578)
(-1.02884 0.73776 6.79453)
(-1.11544 0.775291 6.47667)
(-1.21506 0.815208 6.08059)
(-1.32698 0.865041 5.57379)
(-1.4446 0.928496 4.90547)
(-1.52394 0.955437 4.01716)
(-1.4842 0.879111 2.9287)
(-1.12129 0.489589 1.97317)
(0.0876021 -0.49164 -0.760897)
(3.28617 -0.63497 1.84136)
(5.17465 1.13648 3.41735)
(7.17815 1.77668 5.20746)
(5.28558 6.42437 0.947946)
(1.90248 6.03147 -2.47624)
(1.31511 3.55685 -4.55057)
(-0.0703341 3.38585 -3.37948)
(-0.761549 2.72015 -3.30423)
(-1.11232 1.00142 -2.55273)
(-0.869747 0.717644 -1.9703)
(-1.40152 1.60299 -2.54018)
(-1.80774 1.88051 -3.44336)
(-1.96369 3.29298 -2.93917)
(-0.792263 6.28472 -1.86965)
(-0.0756195 5.32451 -3.13316)
(-0.70748 3.02503 -3.15173)
(1.0548 1.87401 -1.57324)
(0.101865 3.06791 -2.01621)
(-0.0620181 1.61202 -2.0314)
(0.595999 2.97423 -1.63067)
(0.0723941 1.71138 -1.42738)
(0.484195 2.59882 -1.28071)
(0.269186 3.59666 -1.68293)
(1.98482 3.65106 -0.428221)
(2.59419 4.08096 0.00547423)
(3.85276 4.38772 0.776937)
(2.83877 3.07444 -0.347449)
(3.31049 5.3578 -0.0107915)
(3.61692 5.51156 0.0881326)
(3.14663 3.19389 -0.0884278)
(4.02289 4.12854 1.02398)
(4.89606 5.50378 1.02323)
(5.02231 5.53998 0.805917)
(4.47598 7.30613 -1.46398)
(2.5478 6.16154 -2.43824)
(4.2467 6.34361 1.14664)
(5.14999 4.88892 3.48185)
(3.1688 2.14973 5.29296)
(2.27107 1.1608 4.62698)
(1.24124 0.876347 4.72742)
(-0.423017 1.252 5.40101)
(-1.61603 1.26395 5.66066)
(-2.15708 1.12603 6.0641)
(-2.29862 0.967685 6.69025)
(-2.24393 0.800139 7.28978)
(-2.13625 0.656431 7.74698)
(-2.02524 0.555255 8.08748)
(-1.92121 0.482265 8.3524)
(-1.82219 0.426085 8.56382)
(-1.72445 0.378849 8.73372)
(-1.63074 0.340806 8.87072)
(-1.54382 0.310469 8.98423)
(-1.46365 0.286202 9.07957)
(-1.3892 0.266284 9.16024)
(-1.32019 0.249689 9.22899)
(-1.25594 0.235373 9.28824)
(-1.19605 0.22309 9.33953)
(-1.13979 0.212643 9.38377)
(-1.08649 0.203988 9.42158)
(-1.03491 0.197011 9.45301)
(-0.982848 0.191812 9.47711)
(-0.927544 0.188516 9.49071)
(-0.861421 0.189513 9.48996)
(-0.775675 0.198591 9.46686)
(-0.655932 0.222907 9.42041)
(-0.467732 0.262127 9.3159)
(-0.225783 0.291837 9.16596)
(0.0237908 0.289525 9.03432)
(0.317157 0.275726 8.81769)
(0.578593 0.288507 8.55039)
(0.959203 -0.0385006 9.19487)
(1.43384 -0.0151168 8.9374)
(1.86915 0.0740763 8.30531)
(2.18369 0.122 7.72129)
(2.93943 -0.0128708 8.1539)
(3.69059 0.000611353 8.46274)
(4.77866 -0.0646776 8.04476)
(5.29999 -0.249274 8.15692)
(6.10493 -0.147303 6.87434)
(7.06774 0.0389046 5.23093)
(7.55086 0.362521 3.21486)
(7.35222 0.954103 0.875892)
(6.8571 1.16773 -1.69909)
(6.35953 0.766573 -3.50947)
(5.56141 0.488609 -3.53159)
(7.07508 0.273102 -1.06046)
(5.5582 0.409394 -3.66261)
(5.50373 -0.315956 -3.563)
(5.51618 -0.412905 -3.41863)
(5.52545 -0.747356 -3.95905)
(4.76023 -0.403172 -5.31589)
(4.96782 -0.483474 -5.44063)
(4.20641 -0.319704 -6.37911)
(3.74254 0.0577791 -7.04881)
(2.86872 -0.0159244 -7.65331)
(3.52147 0.186953 -7.42633)
(4.15259 0.0436283 -6.89541)
(4.49691 -0.244977 -6.2324)
(4.51389 0.0708724 -6.22774)
(4.38368 0.210301 -6.4605)
(4.31859 0.0631656 -6.83431)
(4.1993 0.28097 -6.9213)
(3.45016 0.232315 -7.5173)
(3.50029 0.266902 -7.70754)
(3.87502 -0.0235456 -8.10769)
(4.22252 0.0249586 -7.13794)
(4.1998 -0.188253 -7.2785)
(4.29304 -0.173251 -6.99061)
(4.35815 -0.270572 -6.63424)
(4.50392 -0.114134 -6.4003)
(4.98184 0.11779 -5.70335)
(5.50873 -0.12694 -4.86635)
(6.10751 0.182421 -4.00967)
(6.76688 0.464433 -2.72604)
(7.26762 0.640013 -1.18429)
(7.50718 0.586032 0.51615)
(7.36472 0.354045 2.10593)
(6.94374 0.152697 3.56328)
(6.30926 0.0501531 4.84925)
(5.41482 0.085568 5.90933)
(4.42089 0.189292 6.4788)
(3.64915 0.356906 5.45038)
(3.35543 0.35744 5.99768)
(3.51262 0.511748 5.19517)
(3.14695 0.188785 4.74854)
(2.98514 0.149404 4.87309)
(2.31236 0.0412391 5.13154)
(2.30716 -0.00775383 5.48002)
(1.9989 0.107611 5.57046)
(1.36737 -0.0782898 5.39644)
(1.25859 0.0192508 5.72964)
(1.14666 -0.0265249 5.91267)
(0.955383 0.0406616 5.99729)
(0.791667 0.0577098 6.17781)
(0.593294 0.0789444 6.06591)
(0.319517 -0.235616 5.6059)
(0.32122 -0.235601 5.72772)
(0.304821 -0.227675 5.71225)
(0.288183 -0.2155 5.70255)
(0.276796 -0.205985 5.67986)
(0.26951 -0.197065 5.64195)
(0.267102 -0.191474 5.57064)
(0.268073 -0.186754 5.47215)
(0.271298 -0.181069 5.3536)
(0.275973 -0.175475 5.21748)
(0.280251 -0.168685 5.0661)
(0.284658 -0.162304 4.90014)
(0.288966 -0.154863 4.71697)
(0.292577 -0.147104 4.51409)
(0.29539 -0.139257 4.28909)
(0.297757 -0.131525 4.03912)
(0.300484 -0.126229 3.75891)
(0.303612 -0.12458 3.44271)
(0.307363 -0.12839 3.08084)
(0.310853 -0.139105 2.6515)
(0.309004 -0.159387 2.11197)
(0.292868 -0.187564 1.39484)
(0.247259 -0.225512 0.40963)
(0.328319 -0.309454 -1.2684)
(0.419004 -0.607732 -3.49606)
(0.0189782 -0.535807 -4.74438)
(0.130733 -0.122217 -4.49481)
(-0.174034 -0.273308 -3.72428)
(0.467877 -0.664901 -2.38506)
(-0.129882 0.0780065 -4.01732)
(-1.22911 0.783937 0.660735)
(-1.04238 1.14069 1.8157)
(-0.973318 1.07622 2.92276)
(-0.872372 0.988884 3.75692)
(-0.780226 0.929941 4.39522)
(-0.70199 0.882968 4.89145)
(-0.633409 0.838802 5.2876)
(-0.571322 0.797287 5.61507)
(-0.515388 0.75877 5.89392)
(-0.464949 0.723105 6.13504)
(-0.419355 0.689912 6.34521)
(-0.378101 0.659288 6.53008)
(-0.341447 0.631277 6.69411)
(-0.30875 0.605415 6.84018)
(-0.278801 0.580941 6.97106)
(-0.25117 0.557256 7.08855)
(-0.225159 0.534436 7.19259)
(-0.199231 0.511772 7.28154)
(-0.171047 0.489535 7.3521)
(-0.136681 0.467163 7.39563)
(-0.0905848 0.44863 7.40483)
(-0.0289379 0.431967 7.35842)
(0.0437888 0.418138 7.233)
(0.113712 0.405981 7.03082)
(0.211933 0.360211 6.72539)
(0.892484 0.417818 5.8576)
(0.697222 -0.715849 6.56689)
(0.344334 -0.580881 7.00929)
(0.123635 -0.603537 6.69208)
(0.0973059 -0.541355 6.89334)
(0.0454521 -0.512269 6.96914)
(-0.00046165 -0.506885 7.00178)
(-0.0326668 -0.513298 6.98969)
(-0.0529888 -0.526995 6.94239)
(-0.0652492 -0.54527 6.86366)
(-0.0739609 -0.563751 6.75898)
(-0.0814836 -0.581497 6.63582)
(-0.0885461 -0.599312 6.49656)
(-0.0970898 -0.617952 6.34246)
(-0.106424 -0.638183 6.17331)
(-0.11748 -0.659968 5.98612)
(-0.130061 -0.683138 5.77824)
(-0.144247 -0.707186 5.5467)
(-0.160249 -0.732665 5.28885)
(-0.177702 -0.760458 4.99959)
(-0.197157 -0.791405 4.67237)
(-0.219408 -0.826555 4.29667)
(-0.246215 -0.867686 3.85134)
(-0.278351 -0.918571 3.29792)
(-0.316729 -0.992177 2.58207)
(-0.357981 -1.1163 1.6555)
(-0.439206 -1.27091 0.487691)
(-0.69921 -0.707812 -1.84387)
(-0.81457 -0.573579 -4.05461)
(-0.515363 0.036895 -3.35987)
(-0.9795 0.319676 -2.94854)
(-0.518049 0.523975 -2.24612)
(-0.0699862 1.42426 -4.11585)
(6.44406 -0.284981 2.55211)
(10.4525 -0.421532 1.29605)
(8.49825 -3.28618 4.68927)
(6.8995 -4.79818 0.766349)
(5.02908 -3.9374 -2.61862)
(2.90835 -2.39984 -3.43668)
(8.07223 -2.53329 -2.16378)
(8.14859 -1.0765 -1.311)
(0.999947 -1.14308 -3.48361)
(0.886464 1.12098 -3.31667)
(0.896617 1.01889 -3.32754)
(0.157187 0.605845 -2.719)
(-0.0132405 0.700007 -2.51973)
(-0.0713795 1.20329 -2.90333)
(-0.36802 1.81732 -3.94129)
(2.02184 3.50402 -3.46459)
(5.0682 3.91662 -2.62125)
(2.93473 2.35525 -3.43528)
(0.952122 1.59335 -3.67981)
(1.56523 0.803172 -1.96367)
(1.22703 0.52526 -1.66621)
(0.615316 0.3655 -1.66576)
(0.940009 0.449944 -1.74649)
(0.924486 0.873172 -1.78774)
(1.20806 0.648775 -1.96028)
(1.1727 0.321976 -1.9807)
(1.52529 0.061992 -2.42815)
(0.420627 0.144117 -1.39692)
(0.201651 0.325582 -2.54124)
(0.253282 0.0842108 -1.5539)
(0.129566 0.26302 -1.52633)
(-0.0815162 0.41095 -1.40952)
(-0.202373 0.376341 -1.3445)
(-0.256142 0.361803 -1.20168)
(-0.317179 0.709835 -1.77853)
(-0.991357 1.30039 -3.48116)
(-0.580601 1.48733 -3.46238)
(-0.0988893 0.640174 -1.94091)
(0.212414 0.664815 -1.49358)
(0.0370627 0.413273 -1.06619)
(-9.73127e-05 0.251329 -0.830783)
(-0.0540252 0.222891 -1.01909)
(-0.123877 0.230787 -0.93361)
(-0.175367 0.241466 -0.839596)
(-0.240531 0.19705 -0.767281)
(-0.264549 0.185848 -0.68617)
(-0.379204 0.256128 -0.90241)
(-0.536097 0.44373 -1.18866)
(-0.595042 0.299104 -0.990064)
(-0.870307 0.497243 -1.44267)
(-1.62637 0.872808 -1.96111)
(-2.60168 1.78266 -2.22795)
(-1.97126 2.14469 -2.20657)
(-2.0462 2.70205 -1.84736)
(-1.50359 5.117 -0.115869)
(-0.306121 5.60523 0.454282)
(1.77272 5.77949 2.50496)
(1.05704 6.76886 1.21042)
(2.99059 4.14154 3.68118)
(2.70358 3.7104 4.65683)
(2.74619 3.43061 1.64198)
(1.54435 4.58412 1.54026)
(2.43479 4.05184 2.04205)
(3.06436 3.60124 2.75338)
(3.14212 4.53728 2.64642)
(3.61006 2.30833 3.86337)
(4.08013 1.49236 4.73225)
(7.10087 3.08101 3.8226)
(5.4273 0.306587 6.21521)
(5.33945 0.568592 6.29731)
(6.86918 2.57475 4.65021)
(5.62961 1.33321 5.54407)
(4.79881 0.247806 6.18595)
(4.33497 0.61276 5.79139)
(5.61033 1.68483 5.36714)
(6.09638 0.832032 5.55424)
(6.88712 0.541342 7.12599)
(6.09917 0.328516 8.31931)
(4.79334 0.486936 8.36315)
(2.94244 0.381395 7.11128)
(1.55382 0.342522 5.60008)
(0.807803 0.0532292 4.22674)
(0.384878 -0.151096 3.47654)
(0.374405 -0.295608 2.85469)
(0.502902 -0.301365 2.56533)
(0.633298 -0.189431 2.59687)
(0.728659 -0.0596316 2.80946)
(0.791926 0.0450229 3.10013)
(0.833957 0.119593 3.41866)
(0.863366 0.172192 3.73765)
(0.883318 0.210458 4.04113)
(0.895037 0.23946 4.32139)
(0.900454 0.262437 4.57748)
(0.901286 0.281382 4.81091)
(0.898926 0.296779 5.02318)
(0.892679 0.308212 5.21601)
(0.88352 0.315811 5.39155)
(0.873475 0.32011 5.55092)
(0.865622 0.321577 5.69429)
(0.863637 0.320711 5.82083)
(0.872523 0.319875 5.92885)
(0.899655 0.319348 6.01625)
(0.951848 0.319139 6.0794)
(1.0358 0.321252 6.11222)
(1.15813 0.320127 6.10841)
(1.32098 0.320549 6.02541)
(1.59456 0.349262 6.11579)
(1.82987 0.339959 6.04033)
(2.02547 0.335054 6.03445)
(2.22287 0.51919 5.7323)
(1.34897 0.466922 6.90982)
(1.58 0.395241 6.51549)
(2.49074 0.559971 5.26005)
(2.47382 -0.700493 5.80435)
(1.91698 -0.617199 6.3194)
(1.24711 -0.693137 6.32897)
(1.09747 -0.64709 6.68834)
(0.927683 -0.54562 6.89159)
(0.711803 -0.561335 6.99218)
(0.538306 -0.546255 7.17)
(0.145293 -0.381494 8.36178)
(-0.0757053 -0.404365 8.4632)
(-0.311286 -0.372267 8.74291)
(-0.476199 -0.357067 8.9137)
(-0.584402 -0.363443 8.98732)
(-0.66115 -0.379182 9.00272)
(-0.716761 -0.398628 8.9923)
(-0.759007 -0.41891 8.96114)
(-0.796219 -0.439343 8.91468)
(-0.831873 -0.4607 8.85822)
(-0.867711 -0.483026 8.79265)
(-0.905216 -0.506602 8.71822)
(-0.944489 -0.531517 8.63416)
(-0.986485 -0.55828 8.53755)
(-1.03303 -0.586644 8.42576)
(-1.08572 -0.61712 8.29812)
(-1.14438 -0.650584 8.15253)
(-1.20931 -0.687855 7.98379)
(-1.28087 -0.728914 7.78515)
(-1.35841 -0.773387 7.54665)
(-1.43978 -0.819313 7.25279)
(-1.52637 -0.870459 6.88233)
(-1.61867 -0.934136 6.40099)
(-1.70977 -1.00577 5.74859)
(-1.76191 -1.02636 4.83813)
(-1.71521 -0.929273 3.66574)
(-1.34505 -0.542557 2.48621)
(-0.116809 0.59705 -0.178038)
(2.62227 0.640577 1.45186)
(4.86126 -1.20896 3.04053)
(7.43305 -1.91102 5.10587)
(5.25561 -6.8171 1.02042)
(1.70195 -6.50554 -2.42363)
(1.13832 -3.51645 -4.50574)
(1.95471 -3.51836 -3.42525)
(-0.36477 -1.83659 -3.92158)
(-0.0742964 -1.25132 -2.91157)
(0.950257 -1.65224 -3.67657)
(0.900063 -1.09769 -3.3459)
(0.146735 -0.655244 -2.73599)
(0.205198 -0.332974 -2.62695)
(0.251665 -0.103994 -1.56706)
(0.0945864 -0.0696011 -1.10865)
(0.102057 0.0434846 -1.10081)
(0.0405709 0.142733 -1.08722)
(0.0322269 0.0847741 -0.775263)
(-0.0197748 0.152607 -0.744443)
(-0.0713338 0.168272 -0.714222)
(-0.118009 0.190758 -0.65488)
(-0.18272 0.160577 -0.614883)
(-0.224258 0.148043 -0.563062)
(-0.275722 0.0962278 -0.52325)
(-0.316125 0.137965 -0.614195)
(-0.41892 0.177518 -0.764486)
(-0.412751 0.0986105 -0.668076)
(-0.544037 0.168135 -0.840931)
(-0.753025 0.270258 -1.05637)
(-1.17782 0.433249 -1.44356)
(-1.35885 0.726343 -1.6983)
(-1.76077 0.793767 -2.41096)
(-2.05209 1.68785 -2.55317)
(-2.08656 1.60798 -2.21857)
(-2.20421 2.27163 -1.74296)
(-2.53903 2.63715 -1.21584)
(-2.29246 3.28196 -0.814567)
(-1.91354 2.82523 -1.28722)
(-1.38082 4.05175 -0.597414)
(-0.832213 4.05952 2.54701)
(0.253134 4.66733 2.84279)
(1.73443 4.50058 3.72704)
(2.17713 3.25681 5.0683)
(1.02675 2.03484 6.38719)
(0.30037 1.43274 7.05261)
(-0.651885 1.25418 7.76867)
(-1.75208 1.00736 8.23792)
(-2.35788 0.679265 8.29055)
(-2.49134 0.383915 8.3548)
(-2.40387 0.153635 8.59788)
(-2.22062 -0.0348987 8.87767)
(-2.04611 -0.166413 9.08917)
(-1.88843 -0.244633 9.2477)
(-1.7601 -0.289509 9.37621)
(-1.64993 -0.315131 9.48324)
(-1.54948 -0.330128 9.56833)
(-1.4587 -0.33606 9.63168)
(-1.37921 -0.334489 9.68026)
(-1.30941 -0.327871 9.71932)
(-1.24696 -0.318629 9.75069)
(-1.19033 -0.308644 9.77551)
(-1.1382 -0.299532 9.79489)
(-1.0897 -0.290503 9.80981)
(-1.04392 -0.28126 9.82086)
(-1.0001 -0.27165 9.82843)
(-0.957137 -0.261683 9.83315)
(-0.913116 -0.251246 9.83534)
(-0.864452 -0.240027 9.83499)
(-0.803324 -0.22731 9.83194)
(-0.720521 -0.21203 9.82528)
(-0.59784 -0.192151 9.81478)
(-0.423625 -0.169244 9.79575)
(-0.208366 -0.136904 9.76839)
(0.0342705 -0.106831 9.72399)
(0.495689 -0.0899285 9.54379)
(0.511053 -0.171319 10.2781)
(1.1128 -0.101846 9.96312)
(1.7877 -0.039535 9.57258)
(2.39341 0.00452863 8.96943)
(3.00492 0.00762533 9.41071)
(3.48593 -0.142829 9.62162)
(4.24339 -0.18747 9.33064)
(4.01947 -0.651097 9.50042)
(5.02689 -0.457706 8.69533)
(5.70285 -0.26781 8.28846)
(6.17935 -0.572293 6.95461)
(6.79261 -0.454737 6.20429)
(7.53091 -0.465338 4.97068)
(8.01002 -0.468479 3.54192)
(8.1352 -0.416258 1.87186)
(7.92055 -0.122011 -0.112067)
(7.88482 0.272323 -0.0338783)
(7.03236 -0.141535 -0.985418)
(5.7224 0.697403 -4.85422)
(7.19707 0.304043 -4.80958)
(6.68683 0.0179357 -4.03609)
(6.6155 -0.249636 -3.77623)
(6.57608 -0.433551 -2.92517)
(6.68685 -0.436171 -1.58104)
(6.4169 -0.511766 -0.878358)
(6.34436 -0.0496433 -1.16736)
(6.36256 0.128159 -0.131063)
(6.42715 0.213417 0.413068)
(6.43021 0.26845 0.99204)
(6.25114 0.341898 1.58761)
(5.95017 0.241897 1.94939)
(5.86208 0.272018 2.17959)
(5.35635 0.18986 2.74707)
(4.86606 0.227689 3.49066)
(4.63352 0.213973 3.62369)
(3.98987 0.227608 4.18401)
(3.78789 0.212047 4.32695)
(3.81426 -0.711014 4.84113)
(3.18269 -0.817799 5.37639)
(2.97701 -0.675296 5.49467)
(2.29027 -0.713722 5.8961)
(2.24233 -0.569884 6.26026)
(1.86871 -0.426284 7.15483)
(1.70006 -0.388514 7.61583)
(1.39217 -0.39614 8.03398)
(0.919145 -0.491131 8.22827)
(0.594652 -0.362324 7.92894)
(0.387331 -0.365336 8.17523)
(0.173992 -0.261102 9.36856)
(-0.111343 -0.253326 9.56401)
(-0.349468 -0.238252 9.66322)
(-0.592237 -0.196116 9.77844)
(-0.766058 -0.152532 9.86613)
(-0.878662 -0.128627 9.91585)
(-0.961029 -0.119716 9.94181)
(-1.02564 -0.119238 9.94968)
(-1.08056 -0.123223 9.94664)
(-1.133 -0.129429 9.9358)
(-1.18592 -0.136939 9.91954)
(-1.24094 -0.145437 9.89835)
(-1.29937 -0.155128 9.8722)
(-1.36152 -0.166238 9.84055)
(-1.42792 -0.179492 9.80219)
(-1.49969 -0.196002 9.75529)
(-1.57775 -0.217032 9.69804)
(-1.66217 -0.243533 9.62845)
(-1.7539 -0.277531 9.5429)
(-1.85369 -0.320838 9.43524)
(-1.9591 -0.374758 9.29571)
(-2.06817 -0.439274 9.11609)
(-2.18527 -0.522809 8.88718)
(-2.31706 -0.640057 8.58434)
(-2.45439 -0.801605 8.15217)
(-2.56392 -0.984705 7.5348)
(-2.52215 -1.15197 6.80345)
(-2.12511 -1.30128 6.16837)
(-1.0751 -1.32388 5.58494)
(0.665484 -1.0208 4.50734)
(2.07562 -1.06576 4.20883)
(3.61082 -1.6986 5.72188)
(6.55786 -5.66327 2.15529)
(3.35069 -5.4152 4.66873)
(2.08427 -7.16925 0.77257)
(3.18457 -7.04167 -0.797671)
(-0.594133 -4.87564 -3.13718)
(-0.914208 -2.89931 -3.1959)
(-1.47468 -1.56888 -2.46747)
(-0.986878 -0.735118 -1.9008)
(-1.18351 -1.04313 -2.48876)
(-1.02751 -1.28904 -3.43487)
(-0.600207 -1.4555 -3.42228)
(-0.132261 -0.675569 -1.93626)
(-0.0255359 -0.740859 -2.52876)
(-0.101608 -0.43986 -1.40551)
(0.110886 -0.302455 -1.52776)
(0.0211896 -0.173607 -1.08181)
(0.0186865 -0.110851 -0.766652)
(0.0540931 -0.043017 -0.787072)
(0.0596651 0.0207334 -0.788232)
(0.0326515 0.0125987 -0.625862)
(0.0166109 0.0529763 -0.619165)
(-0.0136699 0.103171 -0.602995)
(-0.0512221 0.118895 -0.592348)
(-0.0941848 0.142648 -0.550615)
(-0.149966 0.119887 -0.529321)
(-0.190975 0.105523 -0.4854)
(-0.235997 0.0601392 -0.447062)
(-0.255499 0.00294467 -0.406727)
(-0.303946 0.0306452 -0.478305)
(-0.350178 0.0712049 -0.554905)
(-0.348798 -0.00955656 -0.509416)
(-0.396966 0.0313463 -0.602415)
(-0.481485 0.0872562 -0.719955)
(-0.626478 0.154197 -0.878704)
(-0.824441 0.303021 -1.15268)
(-1.28726 0.458723 -1.51996)
(-1.80643 0.745751 -2.03121)
(-2.63557 1.37434 -1.79574)
(-2.93016 2.04236 -1.25165)
(-2.85262 2.55035 -0.539306)
(-1.4977 2.27627 0.0459733)
(-1.0983 1.76385 0.0553685)
(-1.05281 1.33022 0.0612562)
(-0.978482 0.984668 0.0832082)
(-0.944762 0.863689 0.0425204)
(-0.833637 0.789904 -0.238957)
(-0.805583 0.947605 -0.27528)
(-0.817715 1.0831 -0.227492)
(-0.844983 1.06791 -0.240282)
(-0.984089 1.33149 0.035936)
(-0.956779 1.49604 0.0511334)
(-0.932585 1.89244 0.218397)
(-0.358166 2.086 0.521226)
(-0.589341 2.74242 1.24855)
(-2.07171 2.89808 1.07911)
(-1.7456 3.8667 0.765965)
(-1.29589 2.93988 2.86349)
(-0.276111 2.11945 4.41284)
(0.257355 1.57397 5.81788)
(-0.431252 0.640722 7.21871)
(-1.13543 -0.187724 8.24296)
(-1.64485 -0.72919 9.1183)
(-2.01786 -0.990859 9.66519)
(-2.15067 -1.09674 9.89167)
(-2.06715 -1.09488 10.0102)
(-1.90695 -1.05403 10.1775)
(-1.73628 -1.03207 10.3311)
(-1.58169 -0.993723 10.4174)
(-1.43746 -0.94568 10.4675)
(-1.32595 -0.894147 10.4954)
(-1.23586 -0.845445 10.5187)
(-1.15623 -0.802087 10.5303)
(-1.08756 -0.762493 10.5244)
(-1.02921 -0.724841 10.5072)
(-0.979175 -0.688842 10.484)
(-0.93542 -0.654652 10.4562)
(-0.896303 -0.621902 10.4243)
(-0.860802 -0.590821 10.3894)
(-0.828047 -0.561079 10.3523)
(-0.797527 -0.532602 10.314)
(-0.768517 -0.505074 10.2751)
(-0.740201 -0.478251 10.2372)
(-0.711083 -0.451641 10.2016)
(-0.678364 -0.42455 10.1712)
(-0.635796 -0.3959 10.1478)