/*--------------------------------*- C++ -*----------------------------------*\
  =========                 |
  \\      /  F ield         | OpenFOAM: The Open Source CFD Toolbox
   \\    /   O peration     | Website:  https://openfoam.org
    \\  /    A nd           | Version:  7
     \\/     M anipulation  |
\*---------------------------------------------------------------------------*/
FoamFile
{
    version     2.0;
    format      ascii;
    class       volScalarField;
    location    "18.9";
    object      alpha.water;
}
// * * * * * * * * * * * * * * * * * * * * * * * * * * * * * * * * * * * * * //

dimensions      [0 0 0 0 0 0 0];

internalField   nonuniform List<scalar> 
15284
(
0.999371
0.999068
0.997935
0.995951
0.991942
0.985318
0.972324
0.951358
0.911381
0.854548
0.756119
0.650555
0.494449
0.357799
0.212165
0.115565
0.321937
0.487637
0.645891
0.717736
0.658235
0.512199
0.42257
0.395983
0.337594
0.322057
0.335838
0.267954
0.28407
0.353779
0.390679
0.433709
0.513963
0.663413
0.720043
0.779421
0.99937
0.99889
0.997724
0.995772
0.991707
0.985319
0.972315
0.951747
0.911681
0.854863
0.756162
0.649095
0.492002
0.357905
0.21402
0.118855
0.113467
0.150331
0.202794
0.319107
0.483946
0.645536
0.771491
0.82581
0.781023
0.784032
0.86755
0.921291
0.954508
0.974783
0.986571
0.993079
0.996556
0.998323
0.999185
0.999619
0.999845
0.999938
0.999943
0.999882
0.999824
0.999723
0.999785
0.999759
0.999822
0.999891
0.999909
0.99995
0.999972
0.999982
0.999985
0.999995
0.999997
1.00001
1.00001
1.00003
1.00004
1.00006
1.00006
1.00007
1.00006
1.00007
1.00006
1.00009
1.00009
1.00009
1.00012
1.0001
1.0001
1.0001
1.00018
1.00029
1.00042
1.0005
1.00062
1.00089
1.00101
1.00105
1.00106
1.00105
1.00064
1.00081
1.0005
0.99977
0.999691
0.99939
0.998901
0.997785
0.995903
0.991893
0.98556
0.97256
0.951959
0.911804
0.85491
0.756164
0.649062
0.492054
0.35794
0.214239
0.119163
0.107124
0.20596
0.25841
0.21822
0.220217
0.329928
0.487805
0.649938
0.770064
0.856614
0.91425
0.950162
0.965359
0.949977
0.914838
0.865724
0.86517
0.914146
0.948507
0.971723
0.985011
0.992378
0.996141
0.998066
0.999032
0.999574
0.999824
0.999863
0.999818
0.999923
0.999941
0.999908
0.999734
0.999399
0.999552
0.999702
0.999814
0.999902
0.999939
0.999951
0.999961
0.999976
0.999984
0.999993
1
1.00001
1.00003
1.00004
1.00005
1.00006
1.00005
1.00006
1.00006
1.00005
1.00006
1.00006
1.00008
1.00008
1.00007
1.00007
1.00016
1.00029
1.00068
1.00066
1.00083
1.00098
1.00086
1.00076
1.00068
1.00067
1.00068
1.00075
1.00067
1.0005
0.998792
0.99873
0.999761
0.999735
0.999746
0.999681
0.999391
0.998606
0.99612
0.987183
0.959386
0.882444
0.698905
0.432078
0.160767
0.0591109
0.120431
0.145809
0.126804
0.1151
0.199728
0.327638
0.479571
0.64296
0.712236
0.642775
0.486029
0.333106
0.331729
0.493825
0.650654
0.769702
0.854175
0.914561
0.952384
0.974805
0.986612
0.993168
0.99653
0.998279
0.999145
0.999559
0.999686
0.999683
0.999826
0.999895
0.999837
0.999775
0.999272
0.999122
0.999125
0.999284
0.999592
0.99963
0.999815
0.99991
0.999951
0.99996
0.99996
0.99997
0.999983
1
1.00001
1.00003
1.00003
1.00005
1.00003
1.00004
1.00004
1.00003
1.00004
1.00002
1.00003
0.999985
0.999984
1.00008
1.00037
1.00065
1.00083
1.00062
1.00066
1.00068
1.00066
1.0006
1.00054
1.00046
1.00047
1.00043
1.00038
1.00031
1.00023
1.0001
1.00003
1
1
1.00005
1.00001
0.999942
0.999461
0.999157
0.99873
0.99873
0.998975
0.999568
0.999753
0.999784
0.999802
0.999797
0.999838
0.999927
0.999927
0.999919
0.999727
0.998672
0.998078
0.998744
0.999235
0.999405
0.998961
0.998554
0.998058
0.998516
0.997551
0.995676
0.991971
0.985841
0.974877
0.956886
0.923587
0.868279
0.774209
0.660755
0.495737
0.333697
0.187152
0.111763
0.0874764
0.0757521
0.0693518
0.0933513
0.147801
0.214147
0.326379
0.505178
0.669718
0.77754
0.855991
0.915268
0.954772
0.977377
0.987871
0.991631
0.991631
0.992997
0.995764
0.997593
0.998691
0.999319
0.999519
0.999767
0.999814
0.999805
0.999357
0.998778
0.998619
0.998943
0.999548
0.999771
0.999585
0.999555
0.999555
0.999796
0.999842
0.0963496
0.125403
0.197712
0.327831
0.396517
0.329573
0.201277
0.216644
0.320912
0.491073
0.647525
0.770621
0.852845
0.910496
0.934564
0.908945
0.854808
0.781918
0.774528
0.854773
0.91086
0.949794
0.972135
0.985144
0.992419
0.996297
0.998234
0.999194
0.999466
0.999577
0.999462
0.999559
0.999827
0.999926
0.999853
0.999746
0.999829
0.999715
0.999653
0.999667
0.999681
0.999768
0.999836
0.999899
0.999928
0.999903
0.999921
0.999948
0.999978
0.99999
1.00001
1.00001
1.00002
1.00002
1.00001
1.00001
1.00001
1.00001
0.999999
0.999945
0.999933
0.999918
1.00001
1.0002
1.00053
1.0006
1.00067
1.00064
1.00056
1.00055
1.00018
1.00017
1.00019
1.00028
1.0004
1.00016
1.00012
1.00011
1.0001
1.00018
1.0002
1.00018
1.00014
1.00011
1.00007
1.00003
1.00002
0.999953
0.999941
0.999988
1.00002
1.00002
1
0.999967
0.999887
0.999742
0.999822
0.999755
0.99977
0.999767
0.999766
0.999085
0.999484
0.998757
0.9994
0.999629
0.99947
0.999572
0.999708
0.999812
0.999861
0.999867
0.999942
0.999873
0.99992
0.999915
0.999765
0.999573
0.999778
0.99979
0.999707
0.999354
0.998607
0.998059
0.998059
0.998599
0.999511
0.999548
0.998891
0.999514
0.999045
0.99854
0.997573
0.998927
0.999188
0.998003
0.996817
0.995265
0.993605
0.991391
0.987749
0.978628
0.95703
0.917408
0.857041
0.777422
0.668789
0.502957
0.321761
0.19657
0.125723
0.076719
0.0529392
0.0383883
0.0383902
0.0603391
0.0516133
0.0591801
0.0944212
0.191428
0.321557
0.488449
0.652292
0.778105
0.864111
0.918273
0.951008
0.970838
0.983067
0.990614
0.995118
0.997709
0.999024
0.999555
0.99974
0.99974
0.999428
0.999088
0.999115
0.999592
0.999765
0.999815
0.999767
0.999903
0.999904
0.999892
0.999859
0.999867
0.999927
0.999923
0.999806
0.999019
0.999146
0.997175
0.989213
0.962941
0.885202
0.680537
0.430942
0.0618079
0.122415
0.147978
0.120793
0.120022
0.192357
0.317383
0.38571
0.319694
0.190921
0.126504
0.135374
0.197573
0.312148
0.49291
0.649256
0.767141
0.853454
0.887709
0.848471
0.765766
0.650335
0.504688
0.507657
0.652983
0.76796
0.851223
0.913668
0.952136
0.97371
0.986106
0.992877
0.996529
0.998354
0.999247
0.999674
0.999858
0.999931
0.9999
0.999643
0.998966
0.998991
0.999439
0.998932
0.999456
0.999761
0.999785
0.999862
0.999923
0.999945
0.999921
0.99989
0.999884
0.999917
0.999941
0.999969
0.999946
0.999935
0.999884
0.999934
0.999981
0.999972
0.999986
0.999958
0.999881
0.999877
0.99991
0.999901
0.999946
0.999952
0.999987
1.00007
1.00018
1.00027
1.00045
1.00092
1.0012
1.00078
1.00085
1.00123
1.00084
1.00059
1.00028
1.00072
1.00033
1.00027
1.00024
1.00012
0.999904
0.999904
0.999791
0.999913
0.999894
0.999832
0.999749
0.999667
0.999649
0.999706
0.999782
0.999645
0.999214
0.998285
0.996378
0.992551
0.98588
0.972891
0.95193
0.911757
0.854328
0.756127
0.650019
0.495496
0.355263
0.20605
0.120158
0.0642022
0.0538337
0.0393291
0.0507383
0.0729716
0.0871453
0.071557
0.0721998
0.0705861
0.0353078
0.046068
0.0681096
0.128709
0.191061
0.332587
0.392386
0.31643
0.198257
0.117855
0.0718856
0.0918053
0.129927
0.196386
0.301178
0.486853
0.561904
0.469481
0.311027
0.19682
0.131232
0.120527
0.215182
0.321149
0.466313
0.649593
0.713269
0.635975
0.478001
0.323353
0.229552
0.211796
0.310884
0.482752
0.647816
0.772382
0.855208
0.913021
0.937001
0.910474
0.852343
0.770683
0.654681
0.498272
0.502562
0.655915
0.769668
0.853338
0.912422
0.950717
0.973183
0.986093
0.993077
0.996694
0.998473
0.999316
0.999696
0.999826
0.999796
0.999754
0.999827
0.999889
0.999715
0.999706
0.999806
0.999138
0.998845
0.999138
0.999682
0.999848
0.999639
0.999261
0.999447
0.999686
0.999847
0.99991
0.999884
0.999776
0.999689
0.999836
0.999699
0.999791
0.999852
0.999885
0.999791
0.999672
0.999642
0.99947
0.999456
0.99966
0.99986
0.999818
0.999881
0.999913
0.999913
0.999908
0.999881
0.999827
0.999718
0.999759
0.99984
0.999829
0.999654
0.999439
0.999565
0.999646
0.999607
0.99905
0.999153
0.999538
0.999747
0.999761
0.999628
0.999557
0.0379787
0.0303157
0.0271544
0.12055
0.116824
0.117249
0.117293
0.200435
0.202052
0.119605
0.116849
0.202279
0.199415
0.209131
0.116543
0.203577
0.202298
0.205207
0.114045
0.117005
0.122338
0.128747
0.124326
0.120824
0.126153
0.16412
0.177458
0.403761
0.176873
0.203384
0.202429
0.200397
0.204185
0.122999
0.12465
0.2089
0.205308
0.124702
0.0813591
0.054526
0.0698412
0.0740821
0.0766689
0.0452131
0.0428785
0.0590985
0.0533534
0.0988083
0.100273
0.214365
0.255806
0.198139
0.123325
0.0808079
0.0782746
0.128989
0.123861
0.126766
0.0856527
0.201036
0.204479
0.201298
0.208639
0.118442
0.0819705
0.0489917
0.0428535
0.0504444
0.0382662
0.0334193
0.0710692
0.0909112
0.0712645
0.0353568
0.0397709
0.0417564
0.0412625
0.045872
0.0362718
0.0794701
0.0702856
0.125818
0.188061
0.326594
0.395746
0.329442
0.194495
0.118347
0.123793
0.0844994
0.074969
0.0775306
0.0786977
0.132848
0.137746
0.211178
0.310372
0.475913
0.559705
0.481292
0.311685
0.196378
0.205861
0.127996
0.12502
0.20648
0.202205
0.330161
0.337316
0.33067
0.495106
0.647024
0.767517
0.854397
0.913231
0.950808
0.973471
0.986334
0.993271
0.996823
0.998558
0.999368
0.999733
0.999892
0.999892
0.999827
0.999399
0.999313
0.999447
0.999652
0.999652
0.999196
0.998901
0.999538
0.999658
0.999691
0.999641
0.999687
0.999417
0.99917
0.999179
0.999799
0.99969
0.999556
0.999471
0.99969
0.999701
0.999566
0.999809
0.999713
0.99979
0.999885
0.99989
0.999889
0.999865
0.999809
0.999838
0.999842
0.999738
0.999701
0.99977
0.999769
0.999744
0.999536
0.998686
0.998555
0.999376
0.999682
0.999643
0.999518
0.999467
0.999261
0.999171
0.998982
0.9995
0.999749
0.999681
0.999699
0.999607
0.999742
0.999854
0.99986
0.999804
0.99976
0.999619
0.999218
0.998375
0.996571
0.992929
0.986095
0.973283
0.951486
0.910747
0.852046
0.752947
0.646532
0.490055
0.355686
0.218682
0.128386
0.0373465
0.0480062
0.0611533
0.125457
0.152977
0.126904
0.0648936
0.0700903
0.0415417
0.041963
0.0519173
0.0429413
0.0399879
0.0450737
0.0387089
0.0400107
0.0869912
0.0980832
0.0769467
0.0756101
0.123253
0.143627
0.199758
0.337948
0.399762
0.331666
0.206842
0.216882
0.227959
0.337578
0.472881
0.63273
0.702464
0.635746
0.47018
0.324442
0.222448
0.143987
0.125039
0.123476
0.2119
0.21089
0.209312
0.122795
0.078586
0.0741893
0.0533944
0.0427466
0.0708654
0.0699555
0.127135
0.162137
0.134227
0.12779
0.16203
0.205889
0.206814
0.20741
0.3442
0.333171
0.325848
0.328934
0.486517
0.49314
0.498593
0.500229
0.503381
0.651373
0.7697
0.855267
0.913632
0.950868
0.973327
0.986097
0.993041
0.996646
0.998436
0.999271
0.999519
0.999464
0.999773
0.999776
0.999309
0.998796
0.999214
0.999542
0.999081
0.998857
0.998856
0.99877
0.998722
0.9996
0.999769
0.999568
0.999433
0.999543
0.99938
0.998905
0.998849
0.999113
0.999362
0.999856
0.999472
0.999154
0.999544
0.999706
0.999827
0.999715
0.999605
0.999539
0.999496
0.999514
0.999746
0.99973
0.999731
0.999531
0.999083
0.999617
0.99951
0.9989
0.999015
0.999414
0.999302
0.998766
0.999001
0.998946
0.999114
0.999219
0.999582
0.999706
0.999661
0.999346
0.999031
0.999327
0.999346
0.999931
0.999893
0.999782
0.999751
0.999528
0.999162
0.998439
0.998226
0.999205
0.999639
0.999555
0.999116
0.997934
0.998136
0.999346
0.998913
0.999104
0.998153
0.996683
0.994674
0.992459
0.990314
0.98742
0.978934
0.957466
0.917699
0.85711
0.777317
0.668728
0.503273
0.322328
0.196961
0.124349
0.0760354
0.051187
0.0363462
0.02517
0.0248951
0.0246087
0.0370456
0.0550842
0.0547901
0.0590992
0.0380648
0.0186881
0.0237819
0.0123802
0.0097826
0.0134827
0.0172388
0.0316285
0.0481136
0.0779283
0.0779277
0.0905535
0.187054
0.335339
0.505186
0.657089
0.777338
0.862995
0.918263
0.952906
0.973339
0.985044
0.991709
0.995634
0.99661
0.996627
0.997344
0.998505
0.999241
0.999634
0.999835
0.999835
0.999808
0.999615
0.999237
0.998487
0.996937
0.993891
0.99345
0.993679
0.993034
0.987501
0.976187
0.954732
0.916737
0.857145
0.771856
0.658828
0.502758
0.321925
0.181565
0.0992287
0.134669
0.190838
0.310671
0.503922
0.67302
0.774136
0.854208
0.917785
0.958522
0.979323
0.986608
0.988996
0.991656
0.994452
0.996308
0.997707
0.998741
0.999361
0.999704
0.999824
0.999805
0.999266
0.998944
0.999383
0.999695
0.999838
0.999904
0.999929
0.99991
0.999945
0.999844
0.999854
0.999894
0.999845
0.999693
0.999585
0.999745
0.99968
0.999305
0.999304
0.998335
0.998025
0.998735
0.999675
0.999807
0.999687
0.999495
0.999593
0.999552
0.999468
0.99878
0.997689
0.995996
0.994034
0.993246
0.992656
0.987776
0.976761
0.954241
0.915115
0.856342
0.777855
0.669407
0.505329
0.327687
0.215197
0.145522
0.0935144
0.0755227
0.0706531
0.0381754
0.0410234
0.0231377
0.00845122
0.0054633
0.0054634
0.0075939
0.00565439
0.0154827
0.029898
0.0534049
0.0752334
0.0752344
0.104585
0.212995
0.341167
0.498708
0.652436
0.777979
0.864192
0.918767
0.952093
0.9722
0.983881
0.990736
0.994789
0.997251
0.99843
0.998772
0.999136
0.999551
0.999765
0.999828
0.999696
0.999156
0.998835
0.999134
0.999744
0.999779
0.999015
0.998712
0.999172
0.999617
0.999854
0.999936
0.999972
0.999954
0.999896
0.999832
0.999873
0.999778
0.999644
0.999761
0.99937
0.99857
0.998025
0.998446
0.999405
0.999524
0.998888
0.998578
0.999593
0.999553
0.999257
0.998558
0.997635
0.9966
0.995044
0.991586
0.984802
0.972862
0.952073
0.917368
0.862198
0.779207
0.662458
0.504821
0.330859
0.19852
0.119941
0.0898566
0.0871247
0.0782961
0.0609683
0.0213077
0.0224683
0.00673028
0.00817009
0.00488127
0.0112357
0.0112353
0.00654747
0.00506555
0.00510556
0.00721601
0.0183179
0.022024
0.0514484
0.0939701
0.120898
0.194523
0.323322
0.497005
0.651786
0.773261
0.862476
0.919548
0.952572
0.971536
0.98281
0.989885
0.994299
0.996998
0.998529
0.999399
0.998558
0.998727
0.999389
0.999744
0.999457
0.9987
0.9987
0.998701
0.999313
0.999801
0.999767
0.999592
0.999456
0.999008
0.998259
0.99673
0.994027
0.989621
0.982595
0.971344
0.952388
0.919227
0.861818
0.77273
0.651536
0.49625
0.328658
0.198122
0.118096
0.0858638
0.0543079
0.0382863
0.0503274
0.111477
0.120675
0.130811
0.125934
0.203796
0.22025
0.227496
0.210781
0.344527
0.349425
0.337042
0.326238
0.490982
0.488584
0.488847
0.48695
0.632906
0.636722
0.640102
0.645235
0.770697
0.768195
0.766136
0.762978
0.857211
0.858859
0.859737
0.860935
0.918141
0.917346
0.916749
0.91589
0.95009
0.950619
0.951063
0.951517
0.971088
0.970951
0.970722
0.970427
0.982664
0.982751
0.982806
0.982772
0.989966
0.990023
0.990047
0.990083
0.994388
0.994367
0.997043
0.997012
0.998576
0.998602
0.999436
0.999436
0.999269
0.998508
0.998141
0.998148
0.999197
0.99957
0.999795
0.999795
0.99966
0.999748
0.999746
0.999201
0.999114
0.999198
0.998938
0.998959
0.999513
0.999588
0.999709
0.999622
0.999142
0.998345
0.997074
0.995214
0.992798
0.990187
0.98718
0.979324
0.958244
0.917508
0.854142
0.774165
0.672631
0.503956
0.31122
0.191052
0.132627
0.0748683
0.0752758
0.0387785
0.0308264
0.0166701
0.0137659
0.0137198
0.0138024
0.0135144
0.0168232
0.0310843
0.0393265
0.0480355
0.0761389
0.0798389
0.0902138
0.190694
0.338816
0.505185
0.657098
0.777386
0.862826
0.91839
0.953442
0.973801
0.985091
0.99139
0.99439
0.994841
0.996165
0.997763
0.998772
0.999336
0.999351
0.999632
0.999744
0.999527
0.999443
0.99944
0.99893
0.998788
0.997928
0.996394
0.993912
0.991412
0.990785
0.986727
0.976718
0.955407
0.917229
0.857503
0.772122
0.658228
0.503558
0.326412
0.184486
0.0969984
0.106465
0.123169
0.0749851
0.0400345
0.0314792
0.0170757
0.0131076
0.00997849
0.0132016
0.0185118
0.0236063
0.0250657
0.0423425
0.0604787
0.0560345
0.0227729
0.00735634
0.00373051
0.0126733
0.00695717
0.0070409
0.00876004
0.00882931
0.00563635
0.00579173
0.00574236
0.00574273
0.0152603
0.0294415
0.0525253
0.0762185
0.076221
0.106388
0.213411
0.340414
0.498209
0.65237
0.777534
0.863677
0.918387
0.951995
0.972179
0.983849
0.990717
0.994785
0.997042
0.997891
0.998499
0.999146
0.999591
0.999636
0.999423
0.998965
0.99815
0.996719
0.994147
0.989816
0.982776
0.971435
0.952278
0.918961
0.861504
0.772462
0.651747
0.495929
0.326628
0.197293
0.114071
0.0884602
0.056849
0.0224497
0.0532634
0.0961984
0.1185
0.193125
0.321946
0.496639
0.651773
0.77319
0.862428
0.919499
0.952509
0.971506
0.98285
0.989968
0.994331
0.996866
0.998147
0.998965
0.99884
0.998606
0.998892
0.997341
0.994577
0.990105
0.982825
0.971072
0.951502
0.918134
0.860934
0.770539
0.64495
0.490742
0.32591
0.203048
0.125571
0.115952
0.214955
0.337501
0.491852
0.645708
0.772618
0.862687
0.919016
0.952077
0.972003
0.98417
0.991491
0.99566
0.997909
0.999074
0.999614
0.999359
0.999035
0.999035
0.999546
0.999783
0.999825
0.999825
0.999899
0.999911
0.999844
0.999694
0.99963
0.999786
0.999901
0.999956
0.999955
0.999942
1.00013
1.00044
1.00077
1.00158
1.0008
1.00026
1.00002
0.999846
0.999867
1.00037
1.00016
1.00103
0.999955
1.00145
1.00099
1.00168
1.00157
1.00069
1.00095
1.00076
1.00224
1.00101
1.00011
1.00035
1.00009
1.00167
0.999398
1.00156
0.998915
0.999884
1.00089
1.00214
0.999968
0.99974
1.00025
1.00397
1.01351
1.00596
0.998812
1.00258
0.994774
0.996082
1.00491
1.00788
1.00194
1.00216
1.00166
1.00101
1.00187
1.00386
1.00866
1.00357
1.00183
1.00311
1.00287
1.00057
1.00011
1.0001
1.00006
1.00006
1.0001
1.00005
1.00004
1.00006
1.00007
1.00005
1.00003
0.999998
0.999978
0.999996
0.999877
0.999984
0.99999
0.999905
0.999734
0.99994
0.999995
0.99982
0.999935
0.999966
0.999993
0.99998
1
0.999978
0.999953
0.999962
0.999874
0.999742
0.9997
0.99928
0.999475
0.999641
0.999391
0.999258
0.999535
0.99943
0.998732
0.99744
0.995155
0.99116
0.984138
0.972074
0.95104
0.915584
0.855934
0.765978
0.641137
0.497617
0.346862
0.216947
0.113174
0.999152
0.998892
0.997321
0.994602
0.990135
0.982806
0.970856
0.950916
0.917199
0.859604
0.767994
0.639718
0.488147
0.336739
0.220653
0.13159
0.131402
0.212942
0.332497
0.489148
0.641991
0.769349
0.860692
0.918335
0.952359
0.972685
0.984855
0.992001
0.995994
0.9981
0.99911
0.999614
0.998982
0.999131
0.999563
0.999612
0.999606
0.999504
0.999593
0.999776
0.999845
0.999754
0.999484
0.999484
0.999764
0.999893
0.999948
1.00003
1.00021
1.00033
1.00048
1.00067
1.00034
1.00095
1.00132
1.00036
1.00019
1.00011
1.00008
0.999918
0.999976
0.999974
0.999952
0.999948
0.999918
0.999936
0.999921
0.999935
0.999915
0.999902
0.99987
0.999812
0.999654
0.999312
0.998834
0.998851
0.999515
0.999224
0.998309
0.996351
0.992548
0.985866
0.973153
0.952304
0.912374
0.855051
0.755592
0.64827
0.490331
0.357269
0.212932
0.122164
0.318412
0.645045
0.991101
0.983997
0.971771
0.950391
0.914258
0.853794
0.76258
0.636864
0.494834
0.348755
0.216604
0.112468
0.115252
0.191785
0.321201
0.485454
0.630147
0.755135
0.85436
0.918541
0.954876
0.974807
0.98604
0.992476
0.996079
0.998038
0.999075
0.999604
0.99982
0.999554
0.998639
0.998589
0.999207
0.999713
0.99983
0.999597
0.99935
0.999517
0.999798
0.999888
0.999817
0.999723
0.999765
0.999897
0.99999
1.00019
1.00039
1.00031
0.999189
1.00015
1.00449
1.00278
1.00404
1.00479
1.00392
1.00204
1.00084
1.00184
1.00031
1.00245
1.00031
1.00028
1.00005
0.99999
0.999979
0.999972
0.999968
0.999939
0.999978
0.999963
0.999958
0.999981
0.99999
1
1
0.999983
0.999883
0.999754
0.999904
1.00001
1.00002
0.999988
0.999986
0.999977
0.999933
0.99994
0.999823
0.999586
0.999181
0.998722
0.999069
0.999408
0.999452
0.999024
0.99894
0.998255
0.998942
0.997693
0.995391
0.991201
0.984702
0.973357
0.956364
0.923168
0.868042
0.769702
0.654801
0.48086
0.346754
0.204934
0.112016
0.0740548
0.0555145
0.0230483
0.0247807
0.0068081
0.00366683
0.00340906
0.00364562
0.00502787
0.00479139
0.00585048
0.145103
0.230195
0.334493
0.484794
0.639188
0.768125
0.859304
0.917093
0.951833
0.972672
0.984963
0.99205
0.995967
0.99803
0.999057
0.999556
0.9997
0.999756
0.999756
0.999599
0.999365
0.999365
0.999539
0.999795
0.999759
0.999575
0.999423
0.999565
0.999775
0.999878
0.999933
0.999973
1.00014
1.00058
1.00101
1.0014
1.00069
1.0005
0.998661
0.99862
0.996856
0.998379
0.99853
0.999565
0.999306
0.999409
0.997325
0.997538
0.997355
0.998011
0.999581
0.996515
0.997869
0.998595
0.999448
0.999589
0.998751
0.996533
0.997077
0.998546
0.999411
0.999691
0.99892
0.998335
0.999255
0.998811
0.998322
0.996087
0.999842
1.00018
0.999805
0.999842
0.999727
0.998079
1.0005
1.00088
1.00094
1.00081
1.00052
1.00016
0.999947
0.999846
0.99971
0.99969
0.999764
0.999636
0.999658
0.99969
0.999777
0.999854
0.999934
1.00012
1.00047
1.00069
1.00014
0.999963
0.999932
0.999881
0.999847
0.999777
0.999893
0.999835
0.999631
0.999404
0.999396
0.999687
0.999821
0.999617
0.998994
0.998589
0.999229
0.999736
0.999818
0.999619
0.999114
0.99811
0.99616
0.992509
0.985939
0.974516
0.954734
0.919933
0.858891
0.760949
0.629596
0.486297
0.339124
0.198587
0.102034
0.11742
0.235296
0.352285
0.482316
0.634121
0.766254
0.858932
0.916958
0.952021
0.973032
0.985298
0.992254
0.996054
0.998061
0.999087
0.999596
0.999816
0.999816
0.999619
0.999128
0.998998
0.999463
0.999725
0.999765
0.999609
0.999404
0.999413
0.999878
0.999865
0.999879
0.999874
0.999787
0.999672
0.999693
0.999786
0.999804
0.999767
0.999712
0.99957
0.999111
0.998178
0.996239
0.992531
0.98562
0.973297
0.951584
0.914538
0.852964
0.761176
0.635199
0.492373
0.34747
0.223912
0.120912
0.340681
0.40964
0.341826
0.198047
0.199242
0.157691
0.121317
0.204893
0.201681
0.203594
0.339067
0.335599
0.496896
0.498424
0.332458
0.331235
0.493676
0.473509
0.714896
0.485942
0.327531
0.337108
0.418895
0.349918
0.460286
0.477147
0.48978
0.344168
0.421405
0.348113
0.197969
0.120564
0.152708
0.172623
0.170027
0.163469
0.0846761
0.166609
0.0856031
0.0859243
0.0872396
0.0581723
0.0438264
0.0447761
0.0764626
0.0797954
0.139086
0.15717
0.119516
0.123621
0.144846
0.211558
0.211668
0.209908
0.34373
0.404259
0.33367
0.330509
0.49237
0.50584
0.639305
0.751453
0.841895
0.881953
0.841179
0.750273
0.632656
0.631139
0.497227
0.502182
0.64121
0.757412
0.84633
0.909594
0.936222
0.909273
0.847315
0.757921
0.633529
0.486123
0.32859
0.339268
0.215988
0.214653
0.117737
0.0780446
0.0692161
0.0696126
0.0425234
0.040477
0.0796109
0.0773408
0.0371745
0.0426376
0.0413363
0.0759329
0.0765746
0.127648
0.126009
0.212621
0.21674
0.219587
0.124153
0.136852
0.0726955
0.0402507
0.0435615
0.0410997
0.0542077
0.0717493
0.0714031
0.140207
0.135843
0.128412
0.125114
0.207772
0.210859
0.216835
0.118435
0.131686
0.19085
0.403454
0.183726
0.165479
0.176779
0.166758
0.185472
0.131182
0.170871
0.128189
0.122296
0.130081
0.121845
0.125672
0.122191
0.224401
0.218644
0.220624
0.227352
0.273382
0.349159
0.477859
0.634356
0.695941
0.623158
0.479797
0.33796
0.332444
0.220384
0.223234
0.341151
0.347344
0.346053
0.344164
0.491492
0.493019
0.635262
0.633522
0.751505
0.756359
0.751121
0.844877
0.910607
0.916127
0.952145
0.974205
0.986606
0.993252
0.996607
0.997872
0.998927
0.99954
0.9998
0.9998
0.999389
0.999019
0.999241
0.999709
0.999831
0.99983
0.999829
0.999599
0.999699
0.999613
0.9988
0.998958
0.999285
0.999719
0.999554
0.999002
0.999269
0.998768
0.998723
0.999163
0.999553
0.999775
0.999778
0.998902
0.998718
0.999741
0.999369
0.998528
0.998798
0.999545
0.999577
0.999714
0.999695
0.998863
0.998003
0.997975
0.999011
0.999534
0.999767
0.999842
0.999861
0.999847
0.999859
0.999696
0.999572
0.999233
0.999531
0.999461
0.999336
0.99929
0.99929
0.999802
0.999657
0.999814
0.999704
0.999328
0.998995
0.998973
0.998872
0.999423
0.999772
0.99954
0.999713
0.999791
0.999393
0.998859
0.999544
0.998674
0.998283
0.997946
0.998855
0.9992
0.99808
0.998744
0.998668
0.9996
0.998181
0.998684
0.999464
0.999344
0.99874
0.998202
0.999034
0.999457
0.999419
0.998712
0.998718
0.998885
0.998753
0.999626
0.999754
0.999595
0.998875
0.998524
0.998524
0.998614
0.99887
0.99962
0.999653
0.999238
0.999819
0.99973
0.999769
0.999762
0.999031
0.999651
0.999195
0.999652
0.999568
0.999247
0.999422
0.999728
0.999795
0.999563
0.998959
0.998397
0.996584
0.992957
0.986034
0.973174
0.950402
0.957136
0.957314
0.97664
0.987654
0.993499
0.995801
0.997567
0.998738
0.999324
0.999615
0.999717
0.999792
0.999699
0.998881
0.998931
0.999569
0.999487
0.998825
0.998443
0.998443
0.99852
0.998587
0.998703
0.998713
0.999124
0.999474
0.999475
0.999224
0.998988
0.999182
0.999462
0.999394
0.999343
0.99942
0.999564
0.999687
0.999099
0.998726
0.999505
0.999719
0.999259
0.999235
0.999166
0.999054
0.99853
0.997888
0.998371
0.998446
0.999275
0.999511
0.999211
0.998833
0.998008
0.998122
0.99875
0.998964
0.998939
0.998677
0.999267
0.999602
0.999552
0.999636
0.999309
0.999397
0.999644
0.999261
0.999368
0.999032
0.99923
0.999032
0.999576
0.999685
0.999284
0.999649
0.999669
0.999277
0.999558
0.999007
0.99847
0.998007
0.998936
0.999542
0.999217
0.999627
0.999722
0.99956
0.999502
0.99907
0.999477
0.998741
0.999424
0.999342
0.998804
0.999514
0.999595
0.999706
0.99939
0.999621
0.999707
0.999709
0.999316
0.999511
0.999426
0.999656
0.999634
0.999343
0.999587
0.999213
0.999457
0.999672
0.999807
0.999804
0.99978
0.999813
0.99979
0.999735
0.999806
0.999798
0.999737
0.999607
0.999635
0.999772
0.999741
0.999752
0.999704
0.999686
0.999598
0.999457
0.999549
0.999756
0.999757
0.999715
0.999633
0.99971
0.999467
0.999081
0.998966
0.999236
0.999402
0.999394
0.998962
0.998962
0.999478
0.999786
0.999727
0.999844
0.99986
0.999767
0.9997
0.9998
0.999735
0.999625
0.99974
0.99976
0.999734
0.999644
0.999385
0.999572
0.999585
0.999427
0.998878
0.998764
0.999279
0.999242
0.999784
0.999867
0.999869
0.999817
0.999814
0.999846
0.999759
0.99985
0.999439
0.999565
0.999544
0.999071
0.997729
0.994944
0.996225
0.992042
0.984854
0.970882
0.950029
0.910442
0.855547
0.76129
0.632845
0.991921
0.985563
0.972196
0.95112
0.910021
0.852675
0.754392
0.648034
0.492263
0.357424
0.219801
0.123036
0.0856352
0.427758
0.418119
0.40786
0.345261
0.338081
0.497183
0.52444
0.520976
0.666286
0.789411
0.871684
0.921511
0.952358
0.97214
0.984352
0.991563
0.995623
0.997809
0.998939
0.99949
0.999755
0.999904
0.999915
0.999861
0.99988
0.999841
0.999922
0.999965
0.99996
0.999912
0.999823
0.999823
0.999876
0.999967
0.999997
1.00001
1.00004
1.00004
1.00007
1.00007
1.00009
1.00009
1.00012
1.00013
1.00013
1.00014
1.00014
1.00016
1.00017
1.00018
1.00019
1.00019
1.00018
1.00018
1.0002
1.00025
1.0004
1.00098
1.00113
1.00067
1.00037
1.00023
1.00019
1.00022
1.00023
1.00023
1.00023
1.00021
1.00016
1.00005
1.00007
1.00007
1.00007
1.00006
1.00005
1.00004
1.00004
1.00001
0.99999
0.999947
0.99988
0.999903
0.999943
0.999982
0.999989
0.999966
0.999904
0.999733
0.999753
0.999669
0.999724
0.999941
0.999942
0.999807
0.999509
0.999038
0.998089
0.996237
0.992768
0.986458
0.975271
0.955739
0.922102
0.865548
0.779488
0.661212
0.54146
0.520079
0.655046
0.721718
0.658431
0.663084
0.667052
0.66016
0.679543
0.780503
0.859997
0.917565
0.954171
0.975511
0.987255
0.99351
0.99676
0.998418
0.999243
0.999642
0.999814
0.99989
0.999956
0.999959
0.999958
0.999943
0.999939
0.999919
0.999869
0.99974
0.99974
0.999875
0.999954
0.999996
1.00001
1.00002
1.00004
1.00004
1.00005
1.00006
1.00008
1.00009
1.0001
1.00012
1.00012
1.00013
1.00013
1.00014
1.00014
1.00016
1.00017
1.00017
1.00017
1.00017
1.00019
1.00026
1.0004
1.00124
1.00124
1.00029
1.00052
1.00049
1.00019
1.0007
1.00039
1.0003
1.00029
1.00015
1.00011
1.00013
1.00012
1.00012
1.00012
1.00011
1.00005
1.0001
1.00009
1.00008
1.00007
1.00007
1.00007
1.00006
1.00005
1.00004
1.00003
1.00002
1.00001
1.00001
1
0.999997
0.999988
0.99997
0.999948
0.999935
0.999968
0.999966
0.999926
0.999882
0.999805
0.999556
0.999317
0.999588
0.999823
0.999953
0.999938
0.999827
0.999837
0.999594
0.999196
0.998331
0.996577
0.993169
0.986834
0.975552
0.956184
0.923704
0.869317
0.78363
0.655769
0.529467
0.530969
0.673428
0.786662
0.866597
0.919188
0.952167
0.972486
0.984606
0.99165
0.995609
0.99775
0.998851
0.999364
0.999613
0.999784
0.999904
0.999858
0.999742
0.999328
0.999482
0.999715
0.999839
0.999902
0.999922
0.999944
0.999975
0.999996
1.00001
1.00002
1.00003
1.00003
1.00004
1.00004
1.00007
1.00006
1.00009
1.00009
1.00008
1.00009
1.00008
1.0001
1.0001
1.00013
1.00014
1.00013
1.00014
1.00014
1.00017
1.00027
1.00027
1.00019
1.00016
1.00015
1.00015
1.00015
1.00014
1.00013
1.00011
1.00011
1.0001
1.0001
1.00009
1.00008
1.00007
1.00005
1.00004
1.00004
1.00003
1.00003
1.00002
1.00001
0.999998
0.999972
0.999922
0.999824
0.999738
0.999738
0.999767
0.999804
0.99977
0.999908
0.999953
0.999919
0.999848
0.999731
0.999794
0.999583
0.999171
0.998333
0.996677
0.993448
0.987213
0.975373
0.95357
0.915835
0.856456
0.777695
0.68735
0.543745
0.351915
0.374149
0.537753
0.514239
0.357114
0.358813
0.34374
0.407559
0.338719
0.336951
0.498061
0.515065
0.519657
0.517248
0.494117
0.495247
0.656723
0.663865
0.663291
0.657184
0.722067
0.654292
0.494967
0.654332
0.654728
0.648527
0.76871
0.773019
0.7714
0.648252
0.494233
0.333671
0.32717
0.340139
0.339857
0.33211
0.497679
0.495713
0.649854
0.649057
0.764925
0.769245
0.7667
0.642425
0.494108
0.326637
0.322221
0.332925
0.325514
0.483828
0.488039
0.488285
0.64635
0.640924
0.645358
0.661796
0.654013
0.778492
0.858003
0.913923
0.950941
0.973446
0.986249
0.993184
0.996757
0.998514
0.999343
0.999716
0.999828
0.99992
0.999735
0.999076
0.999055
0.999286
0.999755
0.999774
0.999565
0.99906
0.999234
0.999648
0.999789
0.999868
0.999873
0.999749
0.999606
0.999874
0.999882
0.999899
0.999887
0.999896
0.999879
0.999778
0.99983
0.999901
0.999869
0.999825
0.999551
0.999413
0.999518
0.999643
0.999446
0.999402
0.999739
0.999769
0.999253
0.998724
0.999487
0.999742
0.99983
0.999819
0.999677
0.999471
0.999643
0.999706
0.999816
0.999813
0.999839
0.999834
0.999814
0.999771
0.999797
0.999796
0.999837
0.999737
0.999915
0.999928
0.999889
0.999733
0.999718
0.999908
0.999714
0.99914
0.999173
0.997188
0.989768
0.964882
0.887066
0.701454
0.417519
0.140493
0.135841
0.137247
0.218643
0.216429
0.3479
0.344375
0.344202
0.224688
0.230413
0.231824
0.231501
0.225005
0.335433
0.351583
0.392425
0.407637
0.441828
0.498665
0.635371
0.693289
0.615559
0.483777
0.348331
0.342173
0.351539
0.368755
0.489295
0.485166
0.4799
0.622094
0.62186
0.620009
0.747323
0.748505
0.749181
0.756237
0.809986
0.854574
0.913136
0.951383
0.966561
0.950607
0.911864
0.846573
0.845729
0.847297
0.766839
0.756259
0.841993
0.906404
0.933995
0.906468
0.843092
0.751848
0.627604
0.487474
0.498147
0.626006
0.748639
0.844314
0.911392
0.914975
0.951595
0.951415
0.956844
0.976223
0.987465
0.993456
0.995753
0.997701
0.998929
0.99957
0.99957
0.99926
0.999537
0.99968
0.999165
0.998568
0.998541
0.999234
0.999756
0.999787
0.99986
0.999864
0.999758
0.999762