/*--------------------------------*- C++ -*----------------------------------*\
  =========                 |
  \\      /  F ield         | OpenFOAM: The Open Source CFD Toolbox
   \\    /   O peration     | Website:  https://openfoam.org
    \\  /    A nd           | Version:  7
     \\/     M anipulation  |
\*---------------------------------------------------------------------------*/
FoamFile
{
    version     2.0;
    format      ascii;
    class       surfaceScalarField;
    location    "18.9";
    object      alphaPhi0.water;
}
// * * * * * * * * * * * * * * * * * * * * * * * * * * * * * * * * * * * * * //

dimensions      [0 3 -1 0 0 0 0];

internalField   nonuniform List<scalar> 
44249
(
-0.00268457
0.000774937
-0.000949843
-0.000107535
-0.000249359
-0.00339702
0.000671599
-0.000852995
7.68606e-06
0.000887575
-0.0029233
0.000624033
-0.000830007
4.08003e-05
-0.000305692
-0.00371049
0.000553673
-0.000778715
0.000172862
0.000846075
-0.00311842
0.000528956
-0.000743195
0.000199979
-0.000566146
-0.00386759
0.000476892
-0.000670593
0.000258617
0.000706436
-0.00313235
0.000448561
-0.000621241
0.000235289
-0.000758017
-0.00365662
0.000376135
-0.000518093
0.000321719
0.000416172
-0.00278615
0.000311833
-0.0004355
0.000420029
-0.00104417
-0.00305157
0.000235881
-0.000313904
0.000649367
-0.000120532
-0.00184036
0.000164704
-0.000262655
0.00101134
-0.00185424
-0.00139044
0.000128663
-0.000142197
0.00084669
-0.000970382
-0.000772056
0.000150104
-0.000182508
0.000518689
-0.00078301
-0.000636354
6.94703e-05
-4.11852e-05
0.000329568
-0.000244515
-0.000437337
2.38439e-05
1.44378e-05
0.000104321
-7.63708e-05
4.64976e-05
-7.42554e-05
0.000114922
-5.62064e-05
0.000853239
-1.11981e-05
-1.50839e-05
-0.000154637
0.00122893
0.000194034
5.50604e-06
-0.000256491
0.00121965
0.000170917
0.000137189
-6.91243e-05
-0.000638268
0.000728171
0.00054391
0.000669827
-0.000605277
0.000183047
7.01044e-05
-0.000251516
-6.50049e-06
-3.09039e-05
2.69404e-05
-0.000677354
0.000104495
0.000383942
-0.000208156
-0.000613466
0.000470491
0.000507221
-0.000304252
-0.000120494
0.000239691
0.000103505
-0.00015338
-4.63937e-05
2.10526e-05
-5.06881e-05
0.000178927
7.69171e-05
4.14248e-05
0.000233764
0.000185398
7.47081e-05
-0.000599944
0.000412397
0.000259634
-7.4473e-05
-0.00039334
0.000366375
0.000275756
0.000186351
0.000200878
0.000368918
0.000613697
0.00011881
5.45564e-05
0.000514019
-0.000442503
0.000417861
0.000236874
0.000530312
-0.00122098
0.000662333
0.000624336
0.000102012
0.00028743
-0.00259132
-4.68307e-05
-0.000702653
-0.00325938
5.80747e-05
0.000499239
-0.00275107
7.09431e-05
-0.000649291
-0.00350386
0.00019304
0.000509264
-0.00291034
0.000202426
-0.000836572
-0.0036446
0.000256073
0.000440452
-0.00294275
0.000208594
-0.00095773
-0.00348471
0.000266959
0.000234426
-0.0026424
0.000311603
-0.00114872
-0.00291991
0.000538869
-0.000205806
-0.00177761
0.000915845
-0.00192783
-0.00137809
0.00081034
-0.0010203
-0.000727775
0.000460378
-0.000861525
-0.00056948
0.000232342
-0.000258836
-0.000394764
1.61933e-05
-6.26679e-05
8.13859e-05
-7.96087e-05
0.000257894
-0.000195793
-7.30645e-05
0.000128007
0.000158441
0.000158771
0.000440455
-0.000181305
-9.30545e-05
0.00081571
-7.98809e-06
-0.0001292
0.00114319
7.41183e-05
-9.85698e-05
0.00154194
0.000113771
-0.00010469
0.00151481
0.000208633
0.000267278
-0.0002878
-0.000874844
0.0010211
0.000611466
0.000811597
0.000166936
-3.68154e-05
0.00103568
-0.000130584
-0.000123225
0.00128301
0.00014763
-0.000191937
-0.000133796
0.00154974
0.000158871
-0.00028018
-9.8664e-05
0.00185675
0.00017466
-0.000302135
-0.000147981
0.0020497
0.000283285
-0.000322248
-0.000133977
0.00212643
0.000270185
-0.000299783
-3.53842e-05
0.00201661
0.000279445
-0.000227193
6.39764e-05
0.00181974
0.00014352
-9.8556e-05
0.000155073
0.00158648
-6.71147e-05
1.77079e-05
0.000284063
0.000923849
6.78847e-05
0.000296721
0.000298582
0.00208693
0.00101938
-0.00108633
-0.00109601
0.00243943
-0.000553255
-0.000251938
0.000452744
0.0018699
-0.000459011
0.000630172
0.000398497
0.00138941
-0.000416111
0.000445763
0.000450781
0.00065341
0.000315171
0.000289431
0.000131497
0.00158996
0.000602109
-0.000625876
-0.000913182
0.00132055
-0.000706137
0.000673079
0.00030218
0.000877189
-0.000405849
0.000485084
0.000364309
0.00132557
-0.000627333
0.000901861
-0.000722753
0.00138014
-0.000690452
0.000204839
0.000431147
0.000857944
-0.000436214
0.000632659
0.000326013
0.00125705
-0.000611166
0.000906177
-0.00069396
0.00126413
-0.000633326
0.000200401
0.000425967
0.000770185
-0.000357264
0.000565049
0.000286324
0.00123786
-0.000535603
0.000638602
-0.000570767
0.000818422
-0.000554444
0.000683167
0.00029079
0.00132416
-0.000705178
0.000789628
-0.000590273
0.000966136
-0.000707016
0.000724073
0.00034103
0.00154502
-0.000773468
0.000853369
-0.00065871
0.00108849
-0.000776315
0.000797987
0.000435173
0.00166739
-0.000836844
0.000935044
-0.000676871
0.00117189
-0.000846988
0.000867953
0.000474991
0.0018067
-0.000922406
0.00100577
-0.00071796
0.00125793
-0.000926105
0.000925745
0.00054951
0.00186255
-0.000967393
0.00107214
-0.000709291
0.00117685
-0.000942664
0.00110891
0.000519733
0.00182997
-0.00113585
0.00115901
-0.00067636
0.000714884
0.0011107
0.000388332
-0.000383577
0.00118705
0.00129591
-0.000478249
-0.00128966
0.00189743
-0.00207903
0.00245458
-0.00108561
0.00181847
-0.00152599
0.000736379
0.000868844
0.002095
-0.0019109
0.00260665
-0.000972517
0.000703551
0.0021367
0.000294426
-0.00103945
0.000532045
0.00242492
-0.000444513
-0.0018091
0.0011528
-0.0033372
0.003598
-0.000881593
0.000854678
-0.00223239
0.002088
0.000442807
0.000845524
-0.00196966
0.00243597
-0.000457786
0.00044476
0.000878829
-0.000628646
0.000150317
0.000149414
0.00106389
-0.000125001
-0.000643383
0.00116734
-1.02281e-05
-0.0010077
0.00203857
-0.000441579
-0.00018323
-0.000246507
0.00258971
-0.000111476
-0.000253128
-0.000185711
0.00309085
-0.000643055
-0.000226947
0.000369616
0.00304457
-0.000704676
-0.000960787
0.00171257
0.00251065
-0.0021468
-0.00147752
0.00415827
0.00126259
0.000622175
0.00062481
0.000845262
-0.00208289
-0.000392158
-0.00216483
-0.00476023
0.00307338
-0.00254038
-0.000791132
-0.000988982
-0.000113535
-0.00313206
0.000458527
-0.000867302
-6.00461e-05
-0.00254973
-0.000765026
-0.000776447
1.89817e-05
-0.00321525
0.000425343
-0.000671722
0.000118479
-0.00272441
-0.000695418
-0.00062752
0.000114978
-0.00348158
0.000457613
-0.000557084
0.000225112
-0.00290348
-0.000865018
0.000608908
-0.000534557
0.000224194
-0.00364561
0.000413872
0.000558538
-0.000481802
0.000272741
-0.0029509
-0.000973633
0.000554384
-0.000455448
0.000217978
-0.00349643
0.000222714
0.000503949
-0.000386173
0.000273003
-0.0026513
-0.00115636
0.000442887
-0.000325434
0.000310576
-0.00292624
-0.000203775
0.000374643
-0.000251361
0.000532563
-0.00178087
-0.00192096
0.000308105
-0.000178524
0.00090546
-0.00137973
-0.00101176
0.000251155
-0.000139214
0.000801761
-0.000728958
-0.00085611
0.000214139
-0.000152237
0.000455732
-0.000569516
-6.69429e-05
-0.00025409
0.000173003
0.000228924
-0.000397031
-5.93506e-05
-2.03622e-05
0.00012269
1.32273e-05
9.82976e-05
-7.62756e-05
-4.5317e-05
8.12498e-05
0.000136022
-0.000144852
-7.64387e-05
0.000248516
0.000160678
-0.000102301
-7.32119e-05
-0.000125802
9.74869e-05
0.000176772
0.000159157
0.000133249
8.56666e-05
0.000243388
-6.56946e-05
0.000583582
-1.73986e-05
-0.000158948
0.000999769
2.37045e-05
-0.000118628
0.00130873
0.000145729
-0.000109237
0.00176528
0.000311099
-0.000331308
0.00205233
6.61058e-05
0.000322866
-0.000564438
0.00239815
-0.000121601
0.000363436
-0.000514733
0.00211336
-0.000222502
0.000813563
-0.000263065
-0.00153094
0.00129094
0.000914736
0.00145293
-0.00175745
0.000168437
-0.000135874
-0.00146747
-6.40591e-05
-0.000300476
-3.51067e-05
-0.000292705
0.000914215
-0.000156824
0.00118467
-0.000140917
0.00176348
-0.000203416
0.0018522
-0.000161665
0.00037783
0.00201005
8.46627e-05
4.02615e-05
0.00155026
0.000157427
0.000588285
0.00135973
0.000178498
0.000158208
0.00100037
7.55191e-05
0.000217748
0.00229552
-0.00123751
-0.00121588
0.00115878
0.00262516
-0.000458132
-0.000282946
0.000411848
0.0020592
-0.000347138
0.000360027
0.00159435
-0.000392412
0.000398341
0.00107443
-0.000321594
0.000425467
0.00160539
-0.000647429
-0.000876687
0.00099324
0.00171205
-0.000716903
0.00010805
0.000501931
0.00115561
-0.000527476
0.000377664
0.000516503
0.000233092
2.15682e-07
0.00117924
-0.000496319
-0.000793307
0.000959606
-0.000662392
0.000192123
0.000660442
-0.000358116
0.000221372
0.00114414
-0.000547414
-0.00054726
0.000928241
-0.000626041
0.000208693
0.000441002
0.000179296
-4.91383e-05
0.00104407
-0.00043718
-0.000701583
0.000477541
0.000155036
-0.000142869
0.00111381
-0.000490458
-0.000851043
0.000811032
-0.000618798
0.000214726
0.00131973
-0.000681893
-0.000600148
0.000878756
-0.000650188
0.000315216
0.00139983
-0.000750625
-0.000607002
0.000929824
-0.00071595
0.000339453
0.00146811
-0.000828453
-0.000632033
0.000960395
-0.000798473
0.000380469
0.00153543
-0.000957523
-0.000584978
0.000619433
0.000295617
-0.00032192
0.00104704
-0.000451996
-0.00111139
0.00162192
-0.00174093
-0.000945341
0.0021117
0.00151183
-0.00123051
0.000615387
0.000725538
0.00180649
-0.00148258
-0.000891189
0.000712895
0.000281042
-0.000713182
0.000802677
-0.000481145
-0.00151981
0.00140758
-0.0027531
-0.000964458
0.00311277
0.00136514
-0.0020599
0.000576832
0.00152566
0.00113398
-0.00236822
-0.000738661
0.000288858
-0.000104989
-0.00128248
-0.000147448
-0.000248041
-0.00128566
0.000226945
-0.00242146
-0.000265015
0.00231276
0.00113418
-0.000880412
-2.6544e-05
0.00254642
-0.00154315
-0.00130859
0.00144114
0.00340278
-0.00100772
-0.000270415
0.000421679
0.00461142
-0.000892163
-0.000757683
0.00582874
-0.000318777
-0.00100985
0.00575271
0.000359605
-0.000926601
0.00391149
-0.0048269
0.00288655
0.00378153
0.00686618
-0.000149605
-0.00104864
-0.00175568
0.00970385
-0.00336112
-0.00315149
0.00367414
0.00746419
0.00421957
-0.00798239
0.0060026
-0.0115447
-0.00244396
0.00169618
0.000691616
-0.00152269
-0.000642678
-0.000592294
-0.00150615
-0.00194663
0.000780204
-0.001821
-0.000391679
-0.000472961
-0.00172563
0.00132377
-0.001926
-0.00813524
0.00577638
-5.23399e-05
-0.00754093
-0.00182393
-0.00872572
-0.0063296
-0.000502188
0.00460946
0.00281529
-0.00633469
-0.00550226
0.00401396
-0.000973995
7.34446e-05
-0.00721126
-0.00457116
-0.000727199
0.00324738
0.00294141
-0.00606628
-0.00370978
0.00301524
-0.000703786
0.000293639
-0.00768907
-0.00261033
-0.000130792
0.00235826
0.00215823
-0.00604775
-0.00179292
0.00200949
0.000761881
-0.00220302
-0.00645286
-0.000817914
0.0015852
0.00139228
-0.000696773
-0.00261311
-0.000323297
0.000861325
0.00475095
-0.00697409
-0.00199001
0.000116068
0.0010507
0.000727282
-0.000659073
-0.00121299
-7.24041e-06
0.000418205
0.000430773
-0.000202461
0.000893059
-2.87909e-05
9.91379e-05
-0.00143091
0.000206697
0.000135313
-0.00011983
-1.52318e-05
-6.82189e-05
8.19704e-05
6.22709e-05
0.000168802
0.000142228
3.55533e-05
9.01716e-05
-0.000110557
0.000273854
-3.40549e-05
-0.000146892
0.000644852
0.000121024
-2.41851e-05
-0.000250838
0.00114518
4.60987e-05
3.09764e-06
-0.000274458
0.0011479
-0.000119448
0.00032879
2.16371e-05
-0.00082348
0.000878912
0.000448969
0.000735748
-0.000750092
2.87042e-06
-4.85134e-05
-0.000379361
1.19902e-05
-0.000151446
4.37133e-05
-8.91467e-05
0.000421156
-0.000108389
0.000733937
-9.08199e-05
0.000996168
5.89464e-05
0.00128691
0.000293311
-0.000151253
0.00168796
0.000299109
-0.00028444
0.00204931
0.000348876
-0.00027822
0.00254435
0.000498327
-0.000132044
0.00245344
0.000394198
-0.000175636
-0.000101358
0.00261223
0.000290236
8.62175e-05
-0.000521136
0.00224253
8.88385e-05
0.000269122
1.93379e-05
0.00206227
0.000116411
-0.000123632
0.000191017
0.00185848
1.08089e-06
-3.83844e-05
0.000242841
0.00164168
-0.000240388
0.000192401
0.000265481
0.00105971
0.000232948
0.000230694
0.000118618
0.000656523
0.000326324
-8.48556e-05
0.000161898
0.00146446
-0.00102428
-0.000783581
0.000999931
0.00163871
-0.000691449
0.000170492
0.000346812
0.00108253
-0.000450112
0.000725759
0.000280494
0.000487085
0.000410236
0.000194132
-8.85198e-06
0.00108433
0.000646365
-0.000471536
-0.000772416
0.000850969
-0.00064295
0.000694657
0.000180694
0.000344284
0.000469172
0.000146368
-0.000108759
0.000762571
-0.000449091
-0.000697451
0.000728207
0.000865901
-0.000616437
0.00031789
0.000195442
0.000344933
0.00051634
0.00010276
-9.7789e-05
0.000788802
0.0006477
-0.000420062
-0.000671414
0.000635263
-0.000558512
0.000612657
9.96755e-05
0.00106891
-0.000638833
0.0007612
-0.000556037
0.000694753
-0.000621924
0.00077772
0.000218566
0.00102999
-0.000738041
-0.00062871
0.00103159
0.000956337
-0.000646574
0.000334281
0.000385907
0.00116052
-0.000792633
0.0013655
-0.000776932
0.00102354
-0.00070805
0.00040901
0.000435972
0.00121107
-0.000862049
-0.000809347
0.00148398
0.00105003
-0.000766532
0.000457544
0.000470035
0.00121001
-0.00090257
-0.000786721
0.0015294
0.00111129
-0.00079751
0.000411423
0.000484838
0.00136518
-0.00100017
0.00146035
-0.000714252
0.000537896
0.00101632
0.00020263
-0.000391488
0.000737645
0.00120664
-0.000403368
-0.001003
0.00121625
-0.00164788
-0.000867419
0.00203707
0.00118333
-0.00121771
0.000471369
0.000779405
0.0013048
-0.0014235
0.00209842
-0.000796663
0.000461978
0.00155368
7.76613e-05
-0.00078832
0.000143727
0.00189317
-0.000367639
-0.00120743
0.000762364
-0.00249043
-0.000765741
0.00263738
0.000566049
0.0014741
1.81355e-05
-0.00129581
-0.000719523
0.00291682
-0.000296782
-0.00133477
-0.000805391
-0.0026468
-0.000159282
0.00289203
-0.000332642
-0.00294939
-4.35543e-05
0.00252098
-0.000347751
0.00175018
-0.00171142
-2.35153e-05
0.00163605
-0.00177507
-0.000416821
0.000208842
0.00348533
0.00117793
-0.00127396
0.00368088
-0.00195914
0.000550718
0.00121237
0.0037053
0.000705548
-2.43302e-05
-0.000705847
0.00317918
-0.00103964
0.00145004
0.000116026
0.00382277
-0.000987774
0.000612809
-0.000268054
0.00598707
-0.00191397
-0.000535459
0.000285843
0.00913194
0.000501436
-0.00221457
-0.00143093
0.0123658
0.000132271
-0.0035164
0.00796774
-0.00903868
0.0069081
0.00652874
0.0221432
-0.00644684
-0.00498035
-0.00274749
-0.0200458
-0.00609338
-0.0126939
-0.0246637
-0.0058095
-0.00825163
-0.0126865
-0.0031659
-0.00632532
-0.00816124
-0.00170132
-0.00566638
-0.0055453
-0.00114018
-0.00437791
-0.00407168
-0.000860493
-0.0037515
-0.00386972
-0.000489301
-0.00295207
-0.00339771
-0.000829775
-0.000869116
-0.00170661
-0.000635747
0.00135358
-0.00156252
-0.00103918
0.000378096
-0.0011436
0.000348626
0.000672604
-0.00124231
-0.000365464
-0.000208693
0.00140359
-0.00142251
-0.00155646
0.00202714
-0.00152638
-0.000790419
-0.00121066
-0.000482598
0.000847423
-0.00143013
-0.000547927
-7.95635e-05
0.00153082
0.00140092
-0.000732857
-0.00135152
-0.00104515
0.000459213
0.00180269
-0.00106214
-0.000384975
0.000634855
-0.00109618
-0.000475333
0.00273983
0.00351967
-0.00169931
1.23459e-06
-0.00118652
0.00268426
-0.000415912
0.000738295
0.000513069
0.00145952
-0.00125655
-0.00205677
-0.00311037
-0.00167552
0.00264843
-0.00068033
0.00126759
-0.00233443
-0.00149117
-0.000527316
0.00112158
0.000122755
-0.00283045
-0.00130151
-0.000449952
0.000973315
0.00127429
-0.00216243
-0.00118433
-0.00037534
0.000867876
2.31279e-05
-0.00246282
-0.00104791
-0.0003418
0.000652327
0.00103783
-0.000960142
-0.000513205
-0.00105455
-0.00771608
-0.000969697
-0.000594242
8.15748e-05
-0.0001242
0.0020421
-0.00037842
0.00242589
0.00214209
0.000723658
-9.25151e-05
-1.75491e-06
0.0012275
0.00130461
-0.00197604
0.000166014
-0.00059624
-0.000419245
0.00186624
-0.000489849
0.00236253
0.00201088
0.00173222
0.000162864
-0.000175334
-0.000868068
-0.00703391
-0.000643903
0.000344957
0.00198679
0.000214648
-0.00135327
-0.000217132
-0.00265433
0.00231601
-0.000482733
5.65304e-05
0.000276308
-0.00246693
-0.000157607
-0.00025402
0.000234767
-8.97971e-06
-0.00274848
-0.000275476
-4.02747e-05
0.000100424
0.000501304
-0.00251108
6.68283e-05
-0.000267446
3.57671e-05
-6.53513e-05
-0.00270765
-0.000122626
-1.8461e-05
-8.38273e-05
0.000435366
-0.0023954
0.000229134
-0.000460867
-0.000142262
8.54184e-05
-0.00255309
4.39394e-05
0.00019849
-0.000225501
0.000183031
-0.00222826
0.000276981
-0.00062491
-0.000185656
0.000287664
-0.00227159
5.76804e-06
0.000147248
-0.000165401
0.000195276
-0.00166411
0.000206859
-0.000717845
-0.000128908
0.000245048
-0.0014073
9.65198e-05
5.17882e-05
-7.43309e-05
-3.25593e-05
-0.000899703
0.000263968
-0.000362533
-0.000133068
0.000104949
-0.000508537
-4.85673e-05
0.00012599
-5.37227e-05
-9.07013e-05
-0.000121536
-0.000263422
0.00011252
-3.38349e-05
-6.61008e-06
1.31458e-05
-0.000102668
-8.94977e-06
5.31655e-05
-6.74187e-05
4.34994e-05
1.92703e-05
-7.75989e-05
-1.91663e-05
2.36746e-05
1.84625e-05
0.000304193
-3.42245e-05
-0.000106319
0.000215926
-5.60571e-05
-5.64372e-05
5.36334e-06
0.000276098
0.000126674
0.000232883
0.000434058
7.13768e-05
-3.64551e-05
-3.24556e-05
0.000358865
0.000179442
-5.50787e-05
4.17677e-06
0.000467299
0.000122788
-5.54424e-05
-5.34097e-05
0.000642113
-5.2734e-05
7.26161e-05
-2.00733e-05
0.000676339
-0.000125709
0.000138427
7.10581e-05
0.000737093
-3.45171e-05
1.69116e-05
1.56538e-05
0.000904482
8.31739e-05
-9.01837e-05
-0.000116556
0.00113457
6.03552e-05
-9.72766e-05
-0.000156235
0.00125054
-7.53783e-05
2.85199e-05
-4.39536e-05
0.00115576
-0.000228861
0.000173607
0.000164075
0.000922595
-0.000231976
0.000225216
0.000245296
0.000721799
-0.000132409
0.000145691
0.000186731
0.000690751
-4.4574e-06
-3.07763e-06
3.77683e-05
0.000776108
7.79744e-05
-0.000116571
-4.51525e-05
0.000896399
0.000122685
-0.000170256
-7.10852e-05
0.00100207
0.000110039
-0.000167618
-4.70684e-05
0.00106634
6.08235e-05
-0.000129998
5.50907e-06
0.000891291
0.000148954
-6.42655e-05
9.08397e-05
0.000996069
0.00170785
-0.000769502
-0.0010431
0.00137492
0.000201546
-0.0004782
-0.000102375
0.0013471
0.00017925
-0.000244895
9.36229e-05
0.00126992
0.000163974
-0.000224233
0.000137226
0.0011675
0.000176358
-0.000234446
0.000159951
0.00105199
0.000189415
-0.00025308
0.000178939
0.000792139
0.000234345
-0.000174837
0.000201144
0.00115806
0.00163784
-0.000925605
-0.00107785
0.00164467
-0.00107607
0.000452885
0.000136099
0.00161989
0.000188425
0.000395028
-0.000558208
0.00157727
0.000304564
-0.000609027
0.000346758
0.00121398
0.000410322
-0.000439322
0.000392701
0.00184505
-0.00193039
-0.00172216
0.00266153
-0.00317757
-4.16091e-05
-0.00327831
0.000471182
-8.23133e-06
8.92209e-05
7.8535e-05
0.000302635
-8.89512e-05
-2.12511e-05
0.000455788
6.42342e-05
-9.97129e-05
1.94934e-05
0.00059802
2.95364e-05
0.000158015
-0.000122828
-0.000362503
0.000455647
0.000288016
0.000327815
-0.00024941
8.51295e-05
-4.20313e-05
5.56958e-06
-2.30321e-05
6.98378e-05
-1.41528e-05
0.000462856
-0.000186687
0.000850157
0.000101284
-0.000264436
0.00128891
0.000170332
-6.60561e-05
0.00151564
-0.000160161
0.000198763
-0.000120851
0.00181813
-0.000378033
0.00030807
-0.000139373
0.00159639
-0.000396173
0.000731889
-5.59718e-05
-0.00131571
0.00101383
0.00069705
0.00122351
-0.00136076
-6.36434e-05
-0.000247048
-0.00116424
-0.000193467
-0.000318188
-0.000113167
-0.000254916
0.000738395
-4.94877e-05
0.000971053
-7.22636e-05
0.0014151
-0.000111208
0.00163915
0.000484474
-0.000177123
0.00181585
0.000344062
-0.00010657
0.00190162
0.00021066
5.51573e-06
0.00190331
-3.96036e-05
0.00013339
0.00144465
0.000168296
0.000410013
0.00127116
3.23701e-05
0.000143568
0.00089149
-3.40023e-05
0.000174004
0.00188481
-0.00121903
-0.0010966
0.00132259
0.00200003
-0.000616576
0.000204666
0.00029603
0.0017259
-0.00028997
0.000119209
0.000444584
0.0011916
-0.000411237
0.000254342
0.000548812
0.0002091
-1.6164e-05
0.00112039
-0.000620685
-0.000859557
0.000908747
0.00120648
-0.00066034
0.000246219
0.000327687
0.000438055
0.00019133
-6.56588e-05
0.00089746
-0.000525315
-0.000780953
0.000847004
0.000986555
-0.00066051
0.000222945
0.000348021
0.000356849
0.000123969
-0.000110733
0.000784134
-0.000497728
-0.000722924
0.000793327
0.000921603
-0.000660959
0.000350061
0.000173407
0.000372117
0.000103846
-0.000112619
0.000849125
-0.000422475
-0.000693393
0.000400898
7.38329e-05
-0.000247274
0.000920527
-0.0004537
-0.000804076
0.000450966
9.76941e-05
-0.000274544
0.00100984
-0.000482722
-0.000868853
0.000483972
0.00011603
-0.000298109
0.00105284
-0.0005009
-0.000930106
0.000496872
0.000118172
-0.000328607
0.00104326
-0.000496079
-0.00095297
0.00044781
0.000128119
-0.000330031
0.000668359
-0.0003792
-0.00084165
0.00117876
-0.0014233
-0.000787255
0.00170033
0.000825248
0.000495754
0.000338719
-0.000480722
0.00111554
-0.000683389
-0.00125486
0.000423031
6.1755e-05
-0.000586809
0.000393057
-0.000386919
-0.00100697
0.000906848
-0.00187287
-0.000774164
0.00213324
0.000632574
0.00103041
0.000125112
-0.000881109
-0.000215999
-0.000453064
-0.00118941
0.000410692
-0.00248483
-0.000689575
0.00254737
0.00037743
0.00157605
-0.000201209
-0.00134151
-0.000766038
-0.000372866
-0.0011308
-0.000631513
-0.00261465
-0.00046682
-0.00221042
-0.000132902
-0.00139277
-0.000608368
-0.000207966
-0.000651878
0.000235264
-0.000345396
-0.000627434
0.000808265
-0.00146084
-0.000304376
0.000307047
-0.000191325
-0.000537171
0.00301646
-0.00161595
-0.000367185
-0.00122469
0.00260705
-0.000418161
0.000410964
0.00135602
0.001022
0.000615203
-0.000385468
-0.000996218
-0.00166166
-6.01855e-05
0.00407447
-0.000753229
-0.000715151
-0.0026154
0.001533
-0.000693375
0.00259743
-0.000623851
-0.00356775
0.0015732
0.00245266
-0.00309923
-0.000432145
0.00363849
0.00135181
0.00433218
0.000774658
-0.000150365
-0.0013178
0.0035118
0.00205524
-2.29129e-05
-0.00121149
0.00133587
0.00277761
0.00231834
-0.00291989
0.00270806
-0.00163508
0.00046203
-0.000198859
0.00584985
-0.0030443
-0.000457782
0.000360786
0.00800888
-0.00382433
0.00312529
-0.00145965
0.0140977
-0.00968449
0.00588198
-0.00228605
-0.0079063
0.0131237
-0.00380579
-0.0059503
-0.00841872
-0.00169877
-0.00561857
-0.00483913
-0.00115846
0.00448331
-0.00421523
-0.00539721
-0.000488894
-0.00484108
-0.000861207
-0.00456819
-0.0032008
-0.00114353
-0.00403949
-0.00402407
-0.000373997
-0.00397541
-0.00310306
8.72621e-05
-0.00194561
-0.000637707
0.00115062
-0.00254271
0.000965386
-0.00165373
-0.00154627
0.000289015
0.00320542
-0.0017843
-0.00109339
-0.00296465
-0.000287629
-0.000786025
-0.00178373
-0.000592389
-0.0010113
-0.00164619
0.000308307
0.00164721
-0.00179139
-0.000584453
-0.000282862
-0.000293935
-0.00034124
0.00141892
-0.00132127
-0.000673966
0.000281839
-0.000728721
0.000359825
0.00195022
-0.00198964
-0.000526896
-0.000161552
-0.000635611
-0.000370502
0.00124863
-0.000188465
-0.0015822
-0.00011292
0.000786515
-0.00013586
5.03425e-05
0.0013134
-0.000204201
-0.00105529
0.00109731
-0.000367142
-0.000478949
0.000534195
-0.000308847
-0.000224196
9.47104e-05
-0.00041089
-0.000849084
0.00221412
-0.000548744
-0.000379952
-0.00119048
0.0043491
-0.000522824
-0.00161112
0.00381983
-0.000506053
0.000618336
0.00209099
-0.000561788
0.000578602
0.00171206
-0.00089256
-0.00160106
-0.000991729
-0.00421283
0.000590886
-0.00264044
-0.00161914
-0.00367517
-0.00149861
-0.00218891
0.000601737
0.00254817
-0.00296042
-0.000384933
-0.000812854
-0.00187331
0.00235688
-0.00323692
0.000558669
-0.00170125
-0.00062252
0.00204214
-0.00243308
-0.00160082
-0.000392654
-0.000725643
0.00191637
-0.00283348
-0.00141301
-0.000264476
0.000404681
-0.00215275
-0.00125778
-0.000154208
-0.000759246
-0.00262765
-0.00108797
-0.000126386
0.000387077
-0.00205783
-0.0010016
-9.44616e-05
-0.000659814
-0.00255277
-0.00085005
-0.000127242
0.000423653
-0.00170158
-0.000420792
-0.000782293
-0.000161287
0.000408239
-0.000634398
-0.00054401
0.000144398
-0.000754757
-0.00173549
-0.00962392
-0.00169303
-0.000889068
0.00980002
0.00101082
0.00427797
-8.95583e-05
0.00208056
-0.00115775
-0.000217444
0.00196981
-0.000705267
-0.0023638
0.00220097
-0.000431747
2.64114e-06
0.00037388
7.13167e-05
-0.000279732
0.00032229
7.92047e-05
2.177e-06
-0.00294612
7.71568e-05
0.00285928
-0.00147949
0.00169346
-2.3522e-05
-0.00125323
-2.17287e-05
-8.03516e-05
-0.00106693
-3.04381e-05
-7.69263e-05
-0.000997683
-3.44232e-05
-3.97626e-05
-0.00117519
-2.20024e-05
6.77963e-05
-0.00158849
-4.37178e-06
0.000190808
-0.00194115
3.912e-08
0.000144001
-0.00191148
1.10391e-06
-6.54397e-05
-0.00155919
6.67731e-06
-0.000237095
-0.00123651
1.46328e-05
-0.000178646
-0.00110133
2.27609e-05
-9.21435e-05
-0.00102461
2.18068e-05
-2.54916e-05
-0.000703944
1.04277e-05
-9.8224e-05
-0.000339905
-8.6473e-07
-1.64929e-05
-0.000180334
6.3587e-07
0.000124072
-7.41828e-05
7.95144e-06
1.5697e-05
-1.88716e-05
7.76945e-06
-7.18754e-05
3.94342e-05
4.95817e-06
-3.65293e-05
-3.54775e-05
-3.46774e-05
4.17711e-05
-5.43087e-05
-3.20958e-05
3.16542e-06
-5.14902e-05
-4.41777e-05
4.05316e-05
-2.53052e-05
-2.85023e-05
-3.78065e-05
-3.52293e-05
4.61571e-05
-1.36692e-05
-1.67761e-05
-5.66746e-06
-2.40972e-05
-4.61112e-05
0.000163844
3.0542e-05
-0.000109576
-4.96494e-05
0.000324374
0.000234855
-0.000135889
-0.000112091
0.000484401
0.000228236
-7.12068e-05
-0.000153545
0.00073826
-0.000196559
0.000228798
-9.25495e-05
0.000984514
-0.000511176
0.000432181
5.24084e-06
0.00116073
-0.000409133
0.000396574
-5.05869e-05
0.00119559
-5.58391e-05
0.000206181
-0.000120788
0.00121556
6.33524e-05
0.000115506
-0.000162918
0.00127963
-3.26958e-05
0.000114481
-0.000124718
0.00138937
-0.000179211
0.000134456
-5.17989e-05
0.00152357
-0.000185078
8.80663e-05
-2.86376e-05
0.00162018
-1.35894e-05
-3.13477e-05
-4.63752e-05
0.00166942
0.000213171
-0.000171889
-8.71681e-05
0.00165313
0.00040829
-0.000293393
-9.66591e-05
0.00160029
0.000526551
-0.000375333
-9.74488e-05
0.0015207
0.000565603
-0.000415874
-6.98643e-05
0.00143414
0.000549846
-0.000432496
-3.06724e-05
0.00132857
0.000552622
-0.00044834
1.40232e-06
0.00118708
0.000617538
-0.000474726
-1.60727e-06
0.00110645
0.000591643
-0.00051383
3.24957e-06
0.00106681
0.000596694
-0.000568118
1.16037e-05
0.00103225
0.000645374
-0.000630465
1.98629e-05
0.000964345
0.000696554
-0.000672719
4.42014e-05
0.000926135
0.000624251
-0.000696356
0.000110577
0.000359166
-0.000500907
-8.16765e-06
0.000986849
-0.00134455
-0.000899638
0.00161638
0.00173141
-0.00238638
0.0016598
-1.82959e-05
0.00181588
-0.00229094
0.00188674
0.000319478
0.00190174
-0.00253801
0.0020144
0.000437663
0.00152716
-0.00288443
8.1302e-05
0.00133148
-0.00308024
-2.02785e-06
0.000495809
-0.00239959
-6.49126e-05
-0.00302593
-0.00114074
-0.00649129
0.00405315
0.00469154
-0.00453991
-0.0113482
-0.00478395
-0.00626675
0.00325237
-0.00436202
-0.00261811
-0.00619531
0.00482906
0.00079413
-0.00456866
-0.00133853
-0.00436952
-0.00114294
-0.00423868
0.00457642
-0.000993282
-0.00574321
-0.00016223
-0.00330918
-0.00023831
0.00519857
-0.00325216
-0.00295318
-0.00133747
0.00129148
0.000824148
-0.00400379
-0.00109523
0.000231774
0.001481
0.000893244
-0.00163514
-0.00376621
0.00419569
0.00415229
-0.00502157
0.0019843
-0.000622298
-0.000559968
0.00176754
0.000120817
-3.73941e-05
-4.53972e-05
0.000196131
5.16384e-05
2.73621e-05
-6.57127e-05
-0.000140498
0.000135719
0.000116831
0.000137304
8.09015e-05
-2.12682e-05
0.000118229
0.000114318
-7.20644e-05
0.00030055
0.000164737
-0.000155389
-9.66288e-05
0.000537479
2.17819e-05
4.62499e-05
-0.000117011
-0.000340671
0.000372191
0.000275934
0.000336937
-0.000169574
1.34015e-05
-4.47476e-05
-3.97823e-05
7.70699e-05
2.60196e-05
4.58475e-05
2.6218e-05
7.61705e-05
-1.48157e-05
0.000117125
-2.35319e-05
0.000546395
-8.41029e-05
0.00096632
-0.000116758
0.000138005
-0.000183423
0.00131934
-0.000270697
0.000185229
-4.52022e-05
0.00154717
-0.000335777
0.000256856
-5.27254e-06
0.00129298
-0.000354117
0.000585185
0.000101679
-0.00107662
0.000855283
0.000561055
0.000985469
-0.00109641
-7.07832e-05
-0.000204046
-0.000947454
-0.000165472
-0.000218029
-0.000744231
-0.000125106
-0.000199206
-5.45752e-05
-0.000205767
0.000557402
-0.000104986
0.000767144
-4.34132e-05
0.000904485
-1.97396e-05
0.00126711
-5.39595e-05
0.00171322
-0.000112709
0.000456922
0.00189595
0.000321861
-0.000302376
-0.000165582
0.00208705
0.000269149
-0.00018021
-0.000258311
0.00211151
0.000236903
-0.000261957
1.29452e-05
0.00215988
0.000155666
-0.000412612
0.000215454
0.00182548
-0.000130649
0.00036835
0.000100293
0.00135604
-6.73069e-05
0.000237015
0.000301287
0.0011804
2.71572e-05
-2.45862e-05
0.00017371
0.000782427
0.000300131
-7.08428e-05
0.000168966
0.00162277
-0.00111879
-0.000962544
0.00124094
0.0016282
-0.00059677
0.000301205
0.000290073
0.00136077
-0.000393901
0.000232403
0.000428568
0.000505604
0.000681467
0.000214948
-4.14441e-05
0.0009591
-0.000547671
-0.000828449
0.000923295
0.00102128
-0.000703216
0.000271913
0.000370186
0.000343549
0.000686763
0.000145134
-0.000153452
0.000729225
-0.000464291
-0.000759786
0.000839091
0.000894248
-0.000722674
0.00012904
0.000429013
0.000314425
0.000680392
6.08811e-05
-0.000161004
0.000718041
-0.000504558
-0.000728694
0.00082984
0.000871453
-0.000657116
0.000112764
0.00039099
0.000350883
0.000556289
8.07588e-05
-0.000116259
0.000740058
0.000646971
-0.000413489
-0.000622763
0.000365744
0.00058997
3.84473e-05
-0.000253865
0.000795048
0.000725561
-0.000432549
-0.000722394
0.000388119
0.000649511
4.48853e-05
-0.000287201
0.000826634
0.000783751
-0.000451596
-0.000770723
0.000391157
0.000701831
4.76479e-05
-0.000313833
0.000796656
0.000820056
-0.000439692
-0.000785957
0.000340733
0.000734758
4.17209e-05
-0.000320474
0.000486822
0.000895726
-0.000340601
-0.000701287
0.000960547
-0.00123233
-0.000700309
0.00145924
0.000697828
0.000425906
0.000250998
-0.000413879
0.000888326
0.00143995
-0.000612014
-0.00101848
0.000327363
0.00103149
-1.12099e-05
-0.000459226
0.000320429
0.00114402
-0.000358063
-0.000779114
0.000746987
-0.00141043
-0.0007068
0.00169069
0.000549308
8.99454e-05
-0.000616862
0.000724828
4.73992e-05
0.00185154
-0.000441852
-0.000907892
0.00050058
-0.00168239
-0.00070009
0.00192906
0.000376053
0.00107053
-0.000123682
-0.000822331
-0.000684657
0.0021516
-0.000306873
-0.00078415
-0.000931736
-0.00127467
-0.000207011
0.00172846
-0.000246493
-0.00175875
-0.000248341
0.00132074
-0.000135522
0.0011731
-0.000417545
-0.000866357