/*--------------------------------*- C++ -*----------------------------------*\
  =========                 |
  \\      /  F ield         | OpenFOAM: The Open Source CFD Toolbox
   \\    /   O peration     | Website:  https://openfoam.org
    \\  /    A nd           | Version:  7
     \\/     M anipulation  |
\*---------------------------------------------------------------------------*/
FoamFile
{
    version     2.0;
    format      ascii;
    class       volScalarField;
    location    "18.9";
    object      p;
}
// * * * * * * * * * * * * * * * * * * * * * * * * * * * * * * * * * * * * * //

dimensions      [1 -1 -2 0 0 0 0];

internalField   nonuniform List<scalar> 
15284
(
14646.9
13367.7
12183.4
10902.7
9705.21
8431.25
7268.27
6031.85
4912.82
3776.02
2835.15
1939.81
1242.88
704.285
354.984
145.315
688.618
1188.9
1850.13
2375.8
1910.35
1302.96
1000.01
937.189
747.351
643.386
664.854
561.636
560.347
747.583
949.29
1008.43
1330.64
1941.16
2417.89
2917.24
14694.7
13412.4
12220.9
10940.7
9734.79
8457.62
7283.42
6045.85
4918.8
3786.16
2838.88
1947.79
1252.79
712.915
356.758
142.984
132.65
230.329
351.442
683.056
1175.18
1890
2742.54
3377.35
2867.33
3016.16
3918.41
4989.82
6127.21
7312.11
8523.79
9736.63
10932.4
12106
13164.3
13980
14778.5
15936.3
17126.8
18111.9
18983.8
19810.4
20874.4
21664.1
22406.9
23404.1
24200.3
24911.5
25804.8
26599
27266.3
28001.4
28621
29308.9
29905
30571.6
31143.1
31785.5
32348.5
32996.4
33554.8
34203.8
34716.9
35324.7
35621.9
36153.4
36824.3
37426.1
38126.9
38500.5
39154.7
39886.6
40464.3
41000.9
40983.7
40816.7
40804.6
40741.2
40672.5
40855
40999.8
41128.7
40712.7
17409.5
16113.4
14900.7
13616.4
12414.7
11112
9890.81
8592.47
7411.77
6153.89
5013.88
3853.46
2891.49
1975.16
1269.85
718.195
365.887
146.623
138.068
321.185
503.733
353.578
382.457
698.756
1192.42
1891.03
2801.84
3816.06
4886.7
5968.34
6708.02
5978.2
4928.38
3967.98
4040.79
4991
6135.48
7299.86
8508.67
9707.28
10917.4
11971
12721.6
13513.3
14682.2
15869.1
16967.5
17811.3
18613.1
19697.7
20681.9
21508.6
22276.1
23232.4
24044.7
24842
25742.2
26506.1
27100.6
27852.9
28449.9
29172.4
29771.4
30447
31016.4
31667.2
32226.7
32892.4
33428.4
34049.8
34343.3
34869.6
35498.1
36045.2
36688.3
37003.4
37585.8
38337.8
38997.7
39753.7
40287.7
40507.7
39983.8
39992.3
39788.7
39695.8
39704.1
39433.6
39328.3
39683.5
39614.7
39026
21805.7
22530.5
25645.5
26515.6
21269.7
18706.1
16345.8
13807.9
11454.3
8923.5
6624.99
4256.59
2396.97
963.537
260.851
-22.0323
120.338
222.789
122.668
139.49
343.001
678.957
1170.58
1822.73
2331.14
1819.19
1183.51
732.618
745.717
1202.15
1916.11
2792.89
3796.39
4880.81
6067.71
7262.59
8485.98
9712.79
10968
12180.6
13389
14560.7
15650.7
16389
17156.2
18285.6
19300
20154
20977.4
22014.2
22751.1
23444.7
24348.1
25145.9
25788.3
26587.4
27313.6
28012.4
28620.5
29268.4
29876.3
30501.2
31077.9
31668.9
32197.2
32847.1
33403.7
34013.6
34278.8
34785.5
35415
35964
36607
36933.5
37526.1
38292.3
38807.8
39448.2
39470.4
38295
38763.6
38862.2
38413.5
38139.6
37843.7
37776.7
37990.1
38319
38099.2
38082.6
38089.5
36926
35574.1
34251.2
32933.4
30306.7
28943.4
27540.3
20683
20616.3
21729
21712.1
22473.7
23243.4
24457.1
24335.2
25275.4
25871.3
26123.7
27312.7
28227.7
28698.5
29152.8
23083
21890.8
20608.8
19438.2
18192.3
16394.2
15745
13900
13248.3
12054.6
10810.7
9620.3
8388.17
7217.73
6018.69
4899.01
3785.93
2810.39
1914.73
1220.44
700.032
379.9
182.923
59.1419
44.5422
39.5721
98.9467
194.167
386.839
717.916
1217.02
1924.96
2801.39
3796.13
4882.34
6024.22
7199.18
8397.01
9602.44
10814.8
12026
13237.2
14442.7
15636.1
16750.1
17459.9
18226.2
19380.4
20565.9
21754.6
22937.6
24056.3
24768.6
25540.9
26782.1
28022.9
29124.9
29772.4
30483.1
31644.1
75.008
137.14
328.998
639.438
904.826
640.867
356.485
367.743
687.684
1181.06
1893.02
2757.95
3742.27
4787.04
5508.85
4782.99
3773.08
2880.62
2911.12
3806.26
4914.47
6074.92
7264.41
8460.46
9682.59
10914.8
12152.7
13232.8
13965.7
14712.5
15856
17028.8
18123.1
18912.9
19675.7
20727
21528.1
22249.9
23246.1
24000.7
24687.5
25593.3
26411.2
27031.1
27806.8
28385.1
29110.1
29656.9
30346.6
30863.6
31520
32015.4
32653.2
32973.7
33498.6
34102.4
34579.3
35185.1
35462
35980.9
36636
36969.8
37594.9
38379.3
39095.4
39395.1
39340.2
39255.5
38301.1
38198.1
36640.2
36703.8
36606.8
36629.4
37643.2
36459.9
34872.4
35053.8
35264.5
35323.8
35272.2
34944.8
34591.7
34767.8
35051
35220.6
35455.2
34095.7
32754.6
31476.3
31579.1
30226.8
28865.2
27556.6
26715.8
25881.7
25946.6
26179.9
19489.2
19440.3
19390.9
20571.5
20700.6
21744.5
21883.5
23097.5
23094.2
24195
25189.4
26150.6
27308.7
28132.5
28223
28316.5
28847.9
29532.8
30153.2
29353.3
28136.4
26867.2
25558.2
24316.1
23022
21834.8
20561.5
19391.7
18113.3
16956.4
15692.3
16229.8
15678.6
15710.8
15680.5
14479.7
14499.2
14476.6
13265.6
12052
10836.2
9622.42
8414.52
7215.58
6037.94
4896.19
3808.42
2810.68
1928.8
1216.45
712.258
385.528
184.862
56.5954
-22.4037
-29.4135
-23.6741
-24.431
-35.5342
43.2895
162.301
351.082
687.631
1192.79
1892.63
2761.97
3749.79
4832.78
5968.4
7139.48
8329.69
9531.25
10737.4
11946.4
13154.8
14364.9
15575.9
16798.4
18024.3
19244.2
20448.3
21640.9
22828.3
24033.4
25175.7
25895.3
26636.8
27797.4
29021
30270.6
31565.6
32821.1
33781.2
14870.4
13480.8
11234.4
8690.72
6494.15
4128.01
2331.26
919.496
2.15384
112.638
216.037
107.751
130.647
325.213
633.433
885.216
626.047
327.066
149.075
147.416
334.533
677.434
1181.59
1878.04
2709.72
3653.25
4328.81
3646.2
2712.45
1889.18
1252.45
1264.88
1898.93
2735.54
3762.37
4902.87
6075.35
7250.09
8420.16
9625.89
10865.9
12130.9
13364.6
14444.5
15171.6
15899.6
17039.1
18121.1
18933.1
19684.9
20737
21522.4
22246.1
23263.8
24011.7
24685.4
25589.2
26366.2
26960.3
27708.8
28277.7
28990.5
29527.4
30199.2
30700.8
31326.2
31636
32176.3
32793.5
33263.8
33823
34051.5
34525.1
35106.8
35344.8
35857.8
36540.9
36755.1
36965.7
37573.6
38349.2
38476.2
38444.2
38486
38549.6
38538.3
38499.8
38324.7
37486.9
37714.3
37601.2
37992.4
38133.1
38114.6
37934.3
37576.2
37301.3
37047.6
37106.7
23378
22771.2
21614.2
20357.1
19189.3
17934.7
16778.3
15518.2
14346.1
13092.1
11935.5
10680
9511.62
8264.4
7130.43
5914.5
4817.29
3693.61
2774.32
1885.65
1206.69
680.653
342.912
142.493
31.4808
-40.094
-66.6124
-37.5294
-3.69368
53.6985
-8.26744
5.28413
5.32621
-89.3487
-60.7459
5.21943
119.406
311.934
620.319
881.741
604.398
306.836
122.867
17.0753
17.6896
132.74
323.593
640.54
1107.92
1492.37
1083.83
636.816
325.682
148.015
144.797
331.156
653.636
1144.54
1804.96
2317.67
1781.92
1141.5
669.853
359.592
357.057
671.964
1155.35
1878.22
2749.43
3724.19
4756.15
5467.18
4741.27
3705.81
2728.59
1881.43
1242.25
1254.75
1884.77
2722.25
3738.94
4884.6
6056.82
7223.11
8389.15
9586.07
10829.6
12100.9
13316.1
14391.5
15116.9
15863.2
17018.3
18135.7
18886.5
19628.9
20685.7
21464.6
22179.5
23199.7
23938.2
24528
25199.6
25812
26508.3
27147.2
27797.3
28408
29055.5
29637.6
30223.2
30681.2
31307.7
31583.6
32123
32647.1
32796.1
33315.5
33806.6
33909
34368.9
34922.7
34996.6
35033.5
35432.6
35851.4
35863.9
35862.6
35834.9
35779.8
35711
35246.2
35423.2
35358.5
35545.5
35664.6
35494
35604.9
35640.4
35668.2
35644.4
35589.1
35514.2
35417.4
35566.2
35507.9
35412.2
-96.7112
-97.1767
-96.1793
127.344
137.778
134.798
147.065
341.076
342.028
142.973
136.505
341.486
357.797
351.652
145.128
359.514
371.378
344.1
149.274
145.418
136.997
123.912
134.118
134.216
128.21
247.205
327.251
919.964
329.464
334.385
333.16
352.747
337.413
126.44
144.726
335.804
334.553
135.768
7.54372
-27.9162
6.50799
8.27762
9.50343
-64.0523
-57.6239
-62.1204
-64.6284
5.26682
117.876
290.411
460.669
291.069
119.232
5.26989
5.4511
129.498
131.045
134.728
16.4616
328.071
332.601
326.015
323.008
132.241
5.67391
-64.1943
-76.4171
-45.9442
-82.2521
-72.326
-14.0086
44.4371
-13.0812
-70.5405
-67.5086
-71.0561
-72.0217
-62.5865
-64.8498
-2.23949
10.8659
118.881
305.641
602.408
880.931
614.439
309.635
117.527
127.391
4.84428
2.48176
7.48161
5.72114
124.104
139.137
322.055
634.252
1083.85
1486.1
1101.31
637.946
316.399
324.218
127.954
125.481
329.803
323.161
661.367
715.449
709.812
1186.35
1882.51
2737.05
3719.12
4796.22
5941.07
7126.54
8336.81
9554.27
10769.8
11973
13165
14362.4
15483.3
16257.5
16988
18030.3
18740.8
19453.1
20524.2
21235.9
21879.9
22521.7
23097.9
23745.3
24313.1
24957.7
25555.6
26186.2
26726.7
27336.2
27483.9
28013.2
28579.8
28673
29148.7
29655.6
29700
29752.6
29778.3
30170.9
30590.3
30547.5
30521.6
30516.1
30063.6
30220.6
30123.9
30020.4
29894.5
30053.3
30149.1
29960.7
30084.5
30150.9
29902.3
29927.6
29971.1
30017.2
30049.8
30067.8
30061
30048.2
30030.8
30038.1
30315.1
30277.2
30184
30396.5
19689.5
18363.3
17753.2
16602.9
15351.6
14190.2
12947.6
11800.2
10554.7
9396.44
8161.63
7038.97
5833.62
4746.59
3636.83
2724.74
1856.07
1188.84
673.703
337.344
126.095
-72.7979
-66.5443
-6.48988
99.7887
205.212
103.798
-7.89819
-2.58374
-70.0422
-68.9976
-36.8929
-71.3476
-67.1502
-69.4467
-77.419
-72.6028
-11.2003
52.5436
-16.0854
-2.0404
120.506
136.695
320.702
622.219
890.58
627.501
318.987
352.553
354.446
663.997
1134.53
1769
2289.77
1784.8
1139.11
652.063
330.288
138.039
136.607
119.705
333.074
329.574
328.501
129.803
-1.02314
-0.875044
-32.0464
-76.4081
-0.322366
-2.87715
119.605
231.567
118.549
128.052
228
331.399
341.575
332.121
667.112
664.908
656.791
652.763
1169.95
1184.09
1215.2
1189.67
1246.95
1890.91
2738.83
3715.48
4791.16
5932.66
7117.74
8324.84
9540.89
10751.9
11950.4
13123.3
14214
14954.8
15730.7
16892.7
17965.8
18696.4
19332
19988.8
20692.5
21748.4
22438
23042.4
23676.6
24261.1
24870.1
25418.3
25975.4
26119.1
26667.8
27265.3
27409.8
27913.6
28377
28413.4
28480.6
28531.8
28951.6
29385.2
29340.7
29315.3
29314.2
28848.4
28998.9
28883
28770.9
28648.6
28829.8
28937.1
28742.7
28873.7
28946.9
28711.1
28805.8
28858.6
28919.6
28977.5
29020.5
29032.8
29024.8
28993
28967.6
28940.9
28877.9
29141.7
29097.6
28995.4
29215.4
28400.4
27853.6
26106.7
25507.5
24266.6
22964.6
21764
20522.9
19332.4
18087.8
16897.4
16932.7
16920.5
16937.2
16928.6
15688.3
15717
14504.2
13289.8
12073.6
10855.4
9640.58
8432.33
7232.72
6050.59
4905.93
3816.08
2816.5
1933.27
1219.22
713.563
385.969
185.013
54.4363
-21.6735
-64.789
-79.0008
-79.3164
-78.3212
-63.5693
-17.8753
-17.5301
-21.9604
-29.5531
-71.667
-77.9812
-89.887
-93.6977
-92.8878
-80.8828
-62.1662
-22.7717
54.0821
123.469
199.776
377.054
716.569
1239.1
1964.72
2854.71
3864.98
4964.26
6118.17
7307.53
8520.31
9746.42
10982.4
12225.3
13469.8
14708.6
15932
17129.3
18298.5
19369.5
20079.7
19351.1
18269.5
17096.2
15900.3
14676.6
13439.7
12196.9
10959
9725.65
8504.01
7293.66
6106.38
4953.65
3857.2
2850.85
1961.83
1236.04
719.296
385.129
203.807
191.461
390.647
721.249
1232.23
1956.33
2848.91
3852.77
4946.85
6096.22
7282.84
8489.46
9705.66
10933
12168.6
13408
14643.9
15867.7
17068.7
18256.4
19462.5
20682.7
21934.4
23134.5
24235.2
25229.4
26191.3
27353.4
28176.4
28264.5
27927.4
27878.8
28009.3
28584.6
29408.7
29999.8
29267.7
28216.1
26978.9
25652.9
25605.8
24270.9
23017.1
21810
20614.1
19423.2
18252.4
18190.3
18225.2
16960.1
16829.4
15711.5
14511.9
13300
12083.3
10864.3
9646.01
8435.66
7234.69
6053.66
4906.9
3815.64
2816.31
1935.41
1223.35
720.767
387.644
195.303
97.798
42.4931
35.8276
-24.4122
-66.658
-82.9981
-96.4961
-102.734
-99.903
-100.234
-102.349
-95.788
-87.422
-59.2509
-29.093
54.4898
181.642
375.999
726.277
1245.78
1966.89
2856.66
3862.71
4970.02
6127.03
7322.88
8538.97
9770.41
11010.9
12257.5
13503.5
14744.3
15969.7
17176.6
18366.4
19560.9
20743.8
21895.4
22648.5
21887.9
20838.4
20817.2
21985.7
23207.8
24453.3
25390
26245.5
27456.8
28377.5
28466.9
28166
27144.8
26969.6
26923.5
26996.8
26884
25566.6
24285.5
23040.7
21820.4
20611.6
19401.3
18168.1
18169.8
18206
16973.8
15750
14529.4
13308.1
12089.4
10865.9
9649.44
8436.13
7239.38
6057.57
4915.62
3819.22
2822.11
1937.89
1227.38
717.985
388.021
194.707
66.6574
58.7344
52.1658
-27.9901
-79.818
-87.3341
-107.249
-106.176
-114.904
-114.191
-114.136
-113.975
-118.697
-116.498
-109.247
-90.1222
-68.7092
-32.7004
48.8124
175.232
372.994
725.689
1247.37
1972.61
2860.68
3874.49
4983.37
6151.45
7352.75
8579.27
9818.89
11071.7
12324.8
13576.2
14815.9
16047.6
17265.6
18482.1
19706.1
20906.1
22037.9
22759.8
21936.4
20817.6
19636.2
18427.4
17218.1
16008
14777.9
13541.7
12290.5
11042.5
9791.89
8559.19
7335.21
6140.22
4974.78
3872.63
2860.33
1973.37
1247.29
725.387
371.558
173.121
49.5732
-34.5855
-36.6537
-36.8679
169.337
157.116
164.752
172.671
371.265
371.771
368.924
374.588
733.491
732.885
731.88
728.425
1252.12
1258.23
1263.42
1262.53
1988.41
1986.1
1983.31
1979.42
2867.19
2871.83
2878.16
2887.32
3915.07
3899.9
3890.85
3882.29
4993.7
5007.01
5021.98
5041.58
6223.77
6199.65
6181.8
6164.24
7369.49
7391.6
7415.57
7443.14
8688.96
8656.73
8627.65
8599.39
9845.35
9877.59
9910.56
9948.09
11136.8
11101.8
12359.6
12402.4
13656.8
13612.8
14854.3
14901.7
16143.4
16089.9
17315.8
17379.8
17049.2
18269.8
18231.6
18195
18164.3
19238.5
19968.9
20721.5
20647.8
21901.4
21880.4
20636.2
19430.1
19426.9
18222.3
17033.9
15834.4
14612.1
13379.7
12143.3
10911
9684.35
8469.14
7264.62
6081.29
4933.98
3843.1
2841.44
1951.93
1229.43
720.235
389.552
190.511
58.7781
59.5315
-15.3641
-62.3248
-77.1027
-91.836
-90.2644
-90.6967
-92.3597
-77.3642
-62.044
-15.1513
-24.5304
51.5494
120.633
196.923
372.882
710.305
1227.2
1944.38
2824.76
3825.93
4916.87
6062.75
7243.46
8446.58
9663.43
10891.6
12123.5
13355.8
14583.7
15800.3
16996.2
17009.2
18184.4
19268.3
19314.3
18170.2
16999.9
15778.4
15816.4
14594.5
13365.1
12129.8
10899.9
9672.07
8457.16
7252.17
6071.12
4922.99
3832.38
2831
1948.72
1228.71
715.829
382.121
202.567
190.682
182.349
54.2358
-23.0412
-63.2519
-81.7227
-93.0021
-93.431
-89.4243
-70.8566
-82.7249
-86.8976
-66.3361
-26.7165
-35.5059
-86.3866
-109.391
-115.557
-102.751
-112.963
-107.882
-106.8
-96.2915
-102.804
-104.856
-105.532
-102.643
-96.0995
-88.7598
-61.8271
-32.9485
52.0912
178.824
370.862
716.702
1228.62
1939.69
2818.08
3812.34
4909.31
6054.4
7238.7
8441.88
9662.23
10889.6
12122.2
13352.6
14581.4
15798.5
17004.1
17019.8
15811.5
14588.8
13364.4
12130.6
10899.9
9666.25
8446.25
7236.5
6054.89
4904.02
3814.27
2815.67
1941.43
1227.02
713.654
365.454
170.335
46.0874
-39.6971
-77.9623
-40.3592
40.975
169.943
365.549
714.008
1226.52
1939.52
2812.8
3810.42
4904.33
6056.61
7243.09
8454.57
9679.95
10914.9
12149.1
13382.6
14610.8
15833.4
14640.5
13408
12172
10936.8
9698.64
8468.11
7252.07
6062.89
4908.53
3814.75
2817.76
1947.33
1232.65
717.793
362.012
163.291
143.022
343.733
685.63
1185.59
1879.91
2734.37
3714.98
4791.05
5924.41
7090.65
8278.13
9474.28
10675.8
11879.7
13087.1
14294.3
15503.5
16712.9
17922.9
19130.1
20334.8
21534.9
22734.3
23936.6
25172.3
26426.4
27684.7
28925.7
30192.6
31506.7
32855.5
33882.8
34811.5
36233.4
37690.2
38902.2
39587.6
39607.6
39236.9
38593.1
37910.1
37846.3
38381.1
38398.9
38629.4
38563.9
38621.3
38518.4
38623.1
38894
39310.7
39080.7
39449.8
39338.8
39130.4
39384.3
38831.2
38636
38600.1
38942.2
38905.9
38657.5
38396.6
38424.6
38343.5
38308.8
38381.6
38547.7
38757.7
38582.3
38587.3
38367.4
38522.9
38748.9
38802.5
39228.3
39256.3
39210.6
39222.3
39189.9
39232.1
39500.9
39619.6
39563.7
39479.9
38875
39374.9
39438.7
38226.2
36336.9
36507
34796
34901.3
34966.2
33372.5
33470.3
33425.4
33395
33449.5
33589.7
33475.8
33257.5
33354.2
33720.1
34298.7
34153.5
33367
32210.2
32322.7
32452.7
32587.9
31427.3
30227.6
30222.4
29449
28698.2
28688.1
27503.9
27511.2
26743.2
26040.1
25858.6
24637.6
24703.7
24775.6
24869.8
17322.1
16085.7
14846.5
13603.1
12353.5
11097
9840.91
8594.56
7364.31
6158.19
4987.85
3876.86
2866.59
1981.45
1260
729.785
363.622
164.802
14689.9
13447.3
12210.3
10973.6
9728.83
8491.39
7271.18
6077.26
4918.66
3822.68
2825.67
1957.14
1245.2
727.843
359.051
155.08
146.638
346.402
684.038
1180.07
1867.89
2716.29
3694.21
4767.44
5898.2
7061.83
8246.53
9440.04
10638.9
11839.7
13045.1
14250
15456.2
16661.8
17868.7
19074.1
20278.2
21479.3
22679.9
23885.7
25107.5
26337.1
27583.2
28841.2
30129.8
31466.7
32949.8
34574.7
36158.5
37222.1
37998.8
39056.4
39573.5
39358.4
39078.7
39020.7
38758.6
38448.1
37360.4
36069
33806.8
32887.6
31324.7
29961.6
28776.5
27505.9
26339.3
25073.9
23910.8
22661
21509.7
20253.3
19088.9
17838.4
16688.6
15433.7
14268.5
13018.8
11867
10616
9453.83
8212.21
7083.74
5871.81
4778.11
3660.72
2741.78
1866.02
1195.23
674.226
339.551
131.869
650.458
1890.8
9908.62
8653.23
7411
6195.37
5016.3
3897.74
2877.87
1988.03
1263.11
729.24
356.902
153.102
145.469
339.975
675.667
1168.53
1848.02
2686.27
3650.4
4709.44
5827.41
6977.69
8148.54
9329.39
10517.4
11709.2
12905.6
14105.7
15309.6
16516.7
17723.4
18927.3
20128.1
21326.7
22529.6
23730.7
24932.6
26129.7
27380
28580.5
29368.5
30167.2
31358.2
32708.8
34336.8
36101.2
37936.6
37462.1
38581.8
38521.7
39263.1
39353.5
39496.6
38947.4
39028.6
38877.9
38748.9
38725.1
38654.6
38787.2
37719.7
37691.2
36253.8
35189.6
34312.2
34646
33069.8
33189.4
33290.4
31852.3
31906.1
31986.8
32037.5
32092.4
32153.6
32062.6
32135.7
31076.6
31258.3
31341.2
30194.9
29526.5
28946.2
28749.7
27594.9
27286.5
25933
24601.3
23280.2
22027.7
20798.5
19581.4
18385.6
16556.3
15869.9
14037.7
13316.7
12132.9
10855.9
9677.87
8414.7
7257.26
6026.74
4919.3
3776.86
2816.86
1909.35
1228.65
697.399
361.608
158.524
40.8255
-36.9694
-88.2392
-88.4606
-108.325
-116.245
-119.151
-121.852
-120.551
-120.192
-121.267
146.099
349.138
684.995
1178.22
1860.09
2703.99
3677.99
4748.34
5876.42
7037.66
8218.63
9409.2
10604.1
11802.4
13004.4
14207.3
15411.5
16616.4
17822
19027.4
20232
21434.4
22635.2
23837.1
25041.3
26250
27508.3
28784.5
30081.2
31416.9
32905.2
34539
36289.7
37681.7
38404.5
38637
38722.6
38073.1
38016.7
37901.4
37657
37465.4
37695.5
37747.5
37421.1
37756.7
37701.6
37873.2
37659.2
37492.8
37482.6
37686.3
37856.1
37643.3
37635.1
37394.6
37509
37690.8
37872.5
37686
37661.1
37962.2
38528.8
37960.2
37693.8
37515.4
37699.7
37878.7
37972.6
37694.4
37450
37683.6
37676.4
37932.5
38512.5
38448.5
38705.9
38780
37980.6
36189.4
34411.8
32773.2
31376.1
30060.9
28879.9
28102
28889.2
30071.4
31391.3
32845.7
34484.3
36262.4
37733.7
37677.8
36308.4
34401.9
32683.6
31274.5
30004
28844.2
28647.1
27379.4
27280.9
26128.5
24947.5
23755.4
22557.7
21357.4
20155
18951.4
17746.1
16539.9
15334.2
14131.1
12930.8
11733.3
10540.4
9351.17
8167.39
6993.93
5840.97
4720.38
3656.7
2687.11
1848.56
1170.59
673.928
335.256
140.155
138.765
335.224
683.203
1177.13
1854.21
2693.59
3663.96
4730.44
5853.79
7011.16
8188.15
9375.19
10567.5
11763.1
12962.8
14164
15367.6
16573
17779.1
18985.1
20189.3
21392.5
22593.2
23792.2
24986.2
26173
27337.4
27427.8
26203.7
25002.7
23805
22603.2
21400.7
20193
18986.8
17779
16574
15369.7
14168
12967
11765.9
10569.4
9376.71
8189.01
7011.06
5853.63
4731.35
3666.8
2699.97
1859.46
1180.01
682.841
334.105
138.143
696.706
969.547
683.994
346.556
366.543
240.253
144.382
353.006
351.101
343.758
686.75
730.42
1222.08
1215.42
696.325
687.685
1217.35
1202.16
2375.44
1196.31
678.258
679.261
964.338
683.063
1220.3
1210.2
1231.01
684.821
954.636
685.374
343.799
135.285
231.268
331.455
324.583
253.011
98.8837
256.614
110.124
104.967
98.922
-30.0721
-75.0896
-68.0876
-2.55963
-8.8308
101.351
200.025
107.549
119.664
136.413
325.502
317.431
344.863
631.261
895.372
629.642
674.806
1173.21
1236.65
1854.1
2649.22
3559.4
4227.1
3570.74
2650.81
1846.9
1857.21
1243.63
1232.77
1858.77
2682.89
3640.41
4665.26
5386.24
4684.05
3664.7
2706.14
1858.04
1153.02
668.135
679.891
346.444
324.834
124.103
-0.480631
-0.4924
-1.75045
-75.1695
-72.7256
-3.67398
-6.2769
-73.6896
-68.836
-72.7436
-2.6254
-1.48286
126.213
135.38
334.686
334.407
332.575
118.863
120.844
-3.18141
-74.6579
-73.7137
-72.414
-33.3897
-0.893066
2.33272
118.62
117.994
117.206
117.745
324.263
334.653
328.71
124.273
118.666
324.671
911.454
325.641
233.376
328.718
228.836
322.619
116.796
214.623
109.402
109.033
113.417
124.183
121.266
118.321
333.27
325.34
301.504
332.68
488.58
717.933
1159.51
1769.97
2258.7
1771.16
1148.81
668.162
677.055
353.785
343.209
679.975
664.188
669.96
680.307
1190.9
1222.62
1866.57
1852.81
2701.76
2699.82
2667.33
3662.27
4792.95
4911.3
5954.01
7094.83
8256.71
9419.62
10516
11240.1
11999.1
13103.9
14152.1
14847.5
15558
16552.4
17214.4
17816.2
18432.6
19010.1
19597.2
19748.5
20287.2
20815.6
20923.7
21425.8
21918.1
21939.5
21939.8
21921.4
21881
21831
21321.5
21520.9
21411.3
21317.8
21198
21325.7
21456.5
21259.2
21400.4
21516.3
21293.8
21415.5
21517.4
21312.3
21326.2
21312.4
21423.6
21413.8
21428.8
21437.2
21445.8
21468.1
21377.7
21407.9
21417.3
21641.7
21555
21450
21695.2
21596.5
21469.1
21690.9
22674.2
22818.7
22229.4
22926.5
22700.6
22812.2
22204.2
22898.1
22648.7
22730.1
22108.9
22703
22720.1
22126.9
22831.8
22828.4
22151.7
22816.5
22804.5
22129
22792.8
22775.8
22067.5
22643.2
22604.4
22009.2
22612.6
22514.4
22740.6
22046.8
22635.8
22505.7
22706
22012.9
22579.9
22419.9
22591.7
21914
22442.6
22217.2
22339.5
22484.2
22594.3
22655.6
22699.2
22719.5
22716.8
22693.7
22622.9
21650.6
21575.7
21513.1
20500.8
20412.8
20212.9
19191
18992.9
17960.9
17743
16687.9
15572.1
15445.9
14285.5
13120.5
11997.4
11904.5
10656.2
9435.45
8257.37
7108.35
5953.66
6095.47
6085.56
7135.2
8259.32
9329.75
10041.4
10809.9
11945.1
13096.3
14165.5
14880.7
15612
16627.8
17304.8
17916.2
18555.6
19165.2
19800.4
20392.6
21010.9
21577.6
22158.7
22675.4
23216
23317.4
23408.4
23879.8
24356.1
24387.2
24393.8
24370.1
24319.3
24253.4
23756.8
23952.9
23905.6
23706.3
23464.4
23689.2
23836.2
23662.1
23798.5
23909.2
23712.6
23834.6
23832.3
23857.8
23961
23771.2
23790.5
23804.6
23818.6
23825.6
23835.6
24050.6
23968.1
23962.8
23982
23882.8
24104.8
24016
23900.4
24100.5
25183.5
25974.1
25802
24995
25219.6
24631.5
25246.6
24995
25181.2
24611.7
25201.1
25242.6
24627.2
25238.4
24936.7
25066.9
24490
25049.3
25045.7
24461.8
25032.7
25009.2
24439
25005.1
24848.4
25120.7
24500.3
25099.7
25037.5
24444.8
24998.4
24792.6
25012.5
24391.2
24960.4
24719.5
24883.4
24246.4
24456.5
25018.9
25109.1
25815.2
25669.1
25526.9
26140.3
26295.5
26394.2
26152.2
26279.1
26346.4
26421.2
26465
26161.9
26225.8
26247.9
26263.1
26266.5
26230.6
26561.8
26545.2
26500.1
26454.4
26349.4
26620.1
26544.2
26412.9
26688.7
27376.5
27174.9
27743
27975.1
28615.9
28456.9
27856.9
27291
27087.2
27648.4
27915.6
28551.7
28349.7
27732.7
27188.8
27769.5
27804.2
27201.2
26924.7
27455.7
27805.8
28446.5
28120.8
27410.2
26893
27397.3
27411.9
26869.3
27118.9
27701.6
27732.2
28388.3
28093.9
28436.6
27416
26206
24926.9
23750.5
22494
20694
20072.9
18282.1
17618.7
16473
15206.5
14092.4
12855.1
11113.8
10468
9339.35
8112.25
6994.95
5795.52
4730.15
3628.21
2672.06
1808
9952.63
8652.4
7455.36
6194.08
5040.04
3879.21
2903.2
1986.99
1273.31
724.238
363.544
140.951
112.671
970.514
963.944
975.703
702.768
697.879
1247.01
1333.97
1390.66
2060.8
2922.09
3920.72
5021.5
6184.74
7388.19
8612.92
9843.79
11066.8
12270.6
13436.7
14532.6
15412.1
16237
17334.6
18469.6
19404
20276.3
21095.3
22076.6
22924.7
23728.9
24659.2
25449.2
26156.1
26961.4
27715.3
28558.7
29250
29784.1
30491.4
31017.3
31701.1
32195.1
32807.4
33238.5
33852.6
34485
35010.8
35604.5
36095.8
36651.3
37041.8
37658.5
38337.8
38921.5
39662.2
40298
41057.1
41187.1
41141.2
41201.5
40976.4
40224
39681.1
38881.2
38334
37629.7
37021.7
36640
36084.1
32427.5
31290.4
30901.8
30262.8
30066.1
29651
28999.7
28852.1
28393.2
27672
26932.3
26111.9
25437.4
24647.3
23726.2
22922.7
22072.3
21125.7
20078.8
19795
19285.7
18435.4
17364.2
16202.8
15311.9
14415.5
13441.5
12285.7
11089.6
9868.67
8635.79
7407.59
6200.29
5035.55
3938.77
2935.79
2083.77
1459.3
1356.17
1971.44
2435.7
1961.82
2032.17
2030.33
2020.89
2054.5
2918.33
3910.69
5004.08
6165.72
7368.77
8593.47
9823.14
11045.6
12251.7
13432.5
14573.3
15519.7
16424.5
17305.4
18418.5
19380.2
20262.4
21107.8
22073.9
22910.3
23716.9
24652.5
25440.7
26151.6
26944.8
27666.3
28523.3
29189.2
29767.9
30434.5
31000.3
31645.8
32185.2
32786.4
33218.5
33834.8
34466
34991.4
35586.6
36085.6
36646.7
37042.3
37666.7
38343.9
38937.6
39663.2
40321
41050.1
41163.2
41225.4
41043.5
40934.4
41160.4
41131.9
41003.7
40687.8
40221.7
40095.4
39569.7
39042.2
38858.8
38269.8
37534.6
36902
36497.1
36059.8
35935.5
35448.8
34822
34289.4
33650.9
33055
32413.5
31865.5
31262.7
30673.9
30040.4
29430.9
28786.5
28182.2
27472.1
26731.2
25910.6
25246
24723.9
24461.5
23537.1
22750.9
22215.4
21909.5
20959.9
19911.8
19122.9
18282.4
17211.7
16049.9
15169.1
14587.9
14279.9
13302.8
12151.6
10964.5
9756.57
8539.41
7328.06
6137.62
4987.1
3899.37
2902.87
2054.89
1440.21
1375.63
2048.9
2906.23
3897.74
4989.82
6144.78
7339.34
8554.94
9776.65
10991.6
12188.7
13351.8
14447.7
15317
16139.9
17241.5
18376.7
19318.6
20188.3
20996.7
21975
22819.3
23618.2
24545.5
25332.8
26037.5
26842.4
27597.7
28452.7
29144.4
29678.5
30380.4
30906.3
31586
32080.8
32689.4
33113.7
33728.8
34367
34898.5
35501.5
36002.7
36570
36974.8
37609.1
38305.5
38900.8
39608.9
40215.3
40302.3
39653.7
38935.7
38340.9
37655.9
37025.5
36623.5
36058.3
35555.1
34956
34428.4
33794.7
33177.5
32746.2
32146.9
31607.8
30962.8
30397.5
29731.5
29153.7
28487.1
27628.9
26906.1
26111.9
25402.3
24614.7
23680.4
22875.1
22038.9
21075
20231.9
19349.9
18388.2
17273.2
16399.4
15875.7
15498.7
14543.7
13403
12223.9
11020.7
9801.28
8574.74
7354.25
6154.56
4995.55
3904.26
2914.61
2046.7
1336.37
885.153
890.56
1343.19
1303.26
815.329
810.717
701.071
970.807
694.684
691.668
1241.14
1338.09
1321.11
1295.64
1245.01
1236.71
1957.05
2017.58
2004.92
1935.47
2400.48
1930.39
1236.49
1919.44
1917.04
1919.14
2814.16
2868.35
2791.85
1902.81
1199.13
693.504
684.865
669.2
675.824
681.192
1200.24
1232.82
1894.78
1884.96
2761.2
2751.43
2761.66
1889.42
1184.73
674.835
680.723
667.809
665.243
1167.12
1180.6
1173.89
1881.13
1857.68
1877.27
1968.85
1988.31
2792.29
3773.37
4842.23
5979.04
7160.69
8367.51
9581.44
10788.4
11980.6
13173.2
14290
15051.4
15807
16988.9
18059.4
18795.5
19529
20603.9
21311.6
21943.3
22655.5
23323.8
24338.7
24983.8
25557.2
26201.4
26756.7
27404.2
27637.3
28218.1
28817.6
29311.9
29885.3
30029.9
30523.3
31047.1
31124.1
31534.7
32073.7
32181.3
32201.9
32170.3
32146.7
32134.2
32103.9
32054.7
32016.1
31987.4
31912
31756.8
31191.2
31292
31139.1
31215.3
31304.1
31389.5
31458.4
31561.8
31594.8
31611.6
31602.2
31532.9
31486.3
31434.6
31370.5
31324
31501.3
25117.3
23294.5
20800.8
18452.8
18433.7
18291.4
15990.8
14796.5
13488
11146.2
8718.73
6425.81
4157.69
2286.94
920.749
117.499
120.23
115.934
340.258
335.455
676.282
682.567
678.346
329.248
326.808
357.037
369.185
337.782
642.954
619.021
716.226
927.243
972.188
1264.36
1831.69
2267.24
1781.89
1160.62
673.801
670.012
684.803
736.584
1184.13
1168.41
1150.99
1824.98
1833.13
1858.84
2688.61
2693.12
2627.45
2741.26
3223.49
3802.04
4732.44
5749.41
6465.54
5752.52
4701.98
3664.36
3654.81
3679.15
2808.5
2790.34
3651.89
4638.03
5351.37
4651.35
3633.88
2679.26
1848.69
1162.62
1247.77
1855.6
2661.53
3661.49
4778.29
4921.38
5952.87
5930.62
6052.73
7094.94
8206.9
9270.16
9985.22
10749.4
11851.3
12901.2
13587.6
14288
15276.1
15912
16492.9
17066.1
17219.9
17767.2
18300.4
18394.8
18892.9
19372.4
19375.5
19361.7
19334.6
18841.4
19087.6
19005.7
18916.6
18790.3
18570.2
18804.6
18961.7
18745
18895.6
19016.7
18785.5
18911.5
19016.8
18805
18842.8
18828.4
18930.9
19023.3
19028.9
19034
19042.4
19049.8
19064.1
18984.4
18894.9
18921.2
18902.1
19131
19037.8
18923.6
19175.4
19063.1
18925.6
19157.5
134.57
344.759
695.084
1186.2
1859.62
2697.47
3659.33
4712.1
5821.62
6965.63
8130.92
9308.67
10494.4
11685.5
12881.3
14081.5
15286.1
16494.1
17699.9
18899.9
20087.3
21252.8
22368.6
23098.4
23803.7
24906
26119
27390
28695.6
29994.6
31295.6
32601.9
34017.5
35037.1
36104.3
35842.1
36524.8
37441
37526.6
38608.6
38673.8
37684
36484.2
35860.7
35543.4
34150
34152.8
32783.7
32907.5
31593.2
31699.4
31779.9
30446.3
30501.1
30544.4
30613.7
30680.5
30747.1
30936.4
30989.1
30180
29475.3
29591.7
29704
29852.6
30114.5
30524.4
30340
29549.7
28413.1
28819.5
29076
28538.5
27224
25833.4
24523.4
23243.1
21995.6
20769
19549.6
18317.9
17105.3
15883.2
15852.9
15854.8
16447.7
15767.4
14600.3
13301.4
12153.5
10849.1
9684.93
8392.33
7268.46
6008.44
4915.05
3747.68
2834.51
1917.24
1241.36
691.521
351.563
137.167
32.4653
-41.5613
-91.8547
-116.406
235.777
236.201
234.842
-38.0843
-41.1168
-35.871
240.74
235.087
135.1
126.311
126.101
237.392
337.06
348.929
337.631
671.432
668.495
658.66
655.306
663.672
1186.71
1245
1249.77
1901.51
2763.4
3741.59
4817.03
5957.85
7142.39
8351.01
9567.53
10779.4
11977.7
13147.7
14251.7
15004.8
15765.5
16913.9
18042
18775.4
19490.2
20563.5
21266.4
21907.1
22612.6
23276.1
24286.2
24937.6
25504.4
26094
26307.5
26903.5
27527
28050
28641.9
28783.5
29293.3
29838.5
29924.8
30384.5
30883.9
30932.8
30975.3
30973.4
31304.6
31699.2
31689.1
31662.1
31620
31192.8
31370.5
31333.1
31237.4
31094.2
30580.1
30674.5
30767.2
30821.3
29879.2
28695.9
27429.9
25542
24935.8
23107.7
22486
20689.5
20046.4
18880.6
17630.6
16498.1
15263.7
13491.8
12837
11692.2
10462.5
9332
8115.69
7011.45
5818.66
4748.4
3643.58
2706.8
1848.66
1203.72
675.983
641.369
669.715
667.493
678.872
730.518
713.412
663.332
1141.68
1151.69
1175.35
1161.09
1147.26
1158.66
1261.2
969.291
926.401
618.245
717.696
534.347
532.411
862.655
863.702
1293.32
1326.42
1384.76
1965.5
1826.13
1776.99
1816.2
1821.17
1845.45
1756.69
1758.2
1830.47
1830.16
1830.49
1825.76
1826.39
1827.12
1828.44
1740.45
1754.91
1930.26
1931.67
1843.61
1843.22
1839.19
1836.38
1844.09
1847.72
1934.83
1939.1
1760.33
1741.94
1831.24
1829.76
1832.86
1831.88
1838.95
1841.74
1835.22
2680.1
3641.37
3664.39
2664.59
2643.78
2641.38
2653.19
2660.56
2680.96
2808.58
2260.13
2815.59
2723.7
2716.14
2694.66
2680.55
2673.41
2673.52
2678.1
2688.94
2707.38
2712.83
2803.66
2246.84
2788.78
2663.69
2643.72
2630.17
2617.76
2619.04
2632.75
2651.98
2766.43
2239.91
2786.13
2669.44
2677.33
2615.18
2730.24
2259.01
2860.48
2751.31
2743.25
1944.77
1949.01
1950.19
1291.74
1329.52
1387.88
1969.94
1949.5
2748.68
2750.58
2749.76
3688.35
3683.02
3699.36
3723.22
3849.21
3782.63
3642.88
3630.25
3650.63
3619.62
3598.32
3623.19
3519.6
3526.53
3612.65
3588.28
3609.92
3658.35
3677.43
3667.13
3653.46
3642.55
3635.7
3631.98
3633.55
3639.5
3652.07
3664.75
3681.19
3696.89
3674.31
3629.71
3612.79
3643.79
3559.78
3552.45
4214.81
4880.97
4903.24