/*--------------------------------*- C++ -*----------------------------------*\
  =========                 |
  \\      /  F ield         | OpenFOAM: The Open Source CFD Toolbox
   \\    /   O peration     | Website:  https://openfoam.org
    \\  /    A nd           | Version:  7
     \\/     M anipulation  |
\*---------------------------------------------------------------------------*/
FoamFile
{
    version     2.0;
    format      ascii;
    class       volScalarField;
    location    "18.9";
    object      p_rgh;
}
// * * * * * * * * * * * * * * * * * * * * * * * * * * * * * * * * * * * * * //

dimensions      [1 -1 -2 0 0 0 0];

internalField   nonuniform List<scalar> 
15284
(
111076
111035
110909
110697
110278
109586
108230
106028
101797
95711.3
85080
73544.7
56280.7
41017.6
24555
13526.7
36972.1
55498.2
73006
80879.4
74368.7
58224.1
48236.9
45261.1
38736.3
36982.8
38534.1
30873.4
32688.2
40551.7
44679.9
49485.7
58445
74965.5
81170
87666.3
111123
111063
110924
110718
110283
109613
108243
106084
101833
95756.2
85087.9
73393.3
56018.9
41038.9
24767.3
13902.2
13291.5
17512.4
23495.1
36651.4
55085.9
72969.4
86758.4
92639.1
87794.1
88127.1
97146.9
102900
106422
108554
109787
110466
110830
111018
111113
111158
111175
111185
111190
111190
111190
111178
111190
111189
111199
111217
111223
111235
111251
111262
111265
111270
111269
111271
111271
111275
111276
111282
111283
111287
111284
111285
111281
111278
111255
111242
111233
111210
111167
111098
111035
110971
110947
110929
110920
111025
111107
111201
111235
111155
111170
111070
111037
111425
111390
111331
111268
111124
110902
110458
109773
108397
106215
101942
95828.4
85140.7
73416.8
56041.5
41048
24801.3
13941.1
12558.1
23852.6
29794.8
25248.4
25469.5
37868.8
55518.6
73454.5
86603.5
95966.7
102135
105939
107537
105929
102201
96945.9
96901.1
102139
105785
108222
109612
110378
110773
110975
111070
111120
111147
111148
111147
111155
111157
111159
111152
111123
111137
111157
111177
111193
111210
111223
111227
111234
111231
111235
111235
111240
111240
111246
111246
111249
111246
111244
111224
111214
111211
111200
111182
111135
111088
111025
110960
110867
110782
110737
110759
110892
111017
111107
111202
111154
111205
111141
111055
110866
111068
111042
111001
110957
110987
110972
110942
110858
110605
109687
106816
98663
78838.4
49361.9
18721.1
6988.97
14080.6
16990.3
14814.2
13470.3
23144.5
37607.1
54600.7
72681.3
80270.4
72661.5
55319.4
38225.6
38069.5
56186.8
73534.5
86556.2
95695.7
102157
106166
108512
109741
110415
110761
110941
111032
111075
111088
111084
111090
111094
111087
111082
111034
111028
111033
111048
111087
111099
111113
111131
111140
111145
111152
111157
111162
111165
111168
111166
111162
111162
111153
111146
111122
111107
111096
111071
111032
110962
110898
110794
110652
110523
110455
110414
110488
110595
110733
110878
111009
111123
111205
111282
111171
111210
111118
111314
111338
111350
111356
111429
111439
111440
111128
111066
111025
111001
111011
111039
111029
111023
110999
110968
110978
110948
110918
110848
110749
110867
110824
110885
110937
110951
110938
110854
110787
110849
110759
110572
110204
109581
108460
106589
103086
97183.2
87033.7
74637.4
56404.4
38295.2
21743
13128.6
10329.3
8962.53
8212.27
10986.5
17255.4
24811
37487.8
57453.4
75623.6
87395
95864.3
102196
106362
108712
109787
110164
110163
110298
110572
110750
110856
110914
110914
110916
110909
110899
110849
110788
110765
110764
110789
110794
110756
110744
110684
110671
110614
11313.1
14654.4
22911.9
37627.3
45317.3
37821.6
23318
25064.4
36850.9
55876.1
73176.9
86639.1
95531.6
101709
104261
101549
95753.1
87873.9
87084.9
95757.8
101762
105885
108225
109577
110326
110723
110922
111020
111043
111045
111033
111039
111059
111062
111048
111042
111049
111039
111046
111050
111053
111073
111089
111096
111110
111112
111123
111127
111134
111133
111135
111129
111124
111101
111093
111087
111071
111055
111011
110977
110922
110826
110741
110612
110444
110354
110291
110197
110167
110273
110399
110497
110590
110700
110575
110664
110768
110710
110777
110886
110998
111062
111137
111197
111246
111225
111304
111312
111260
111264
111329
111373
111360
111360
111326
111277
111355
111419
111144
111114
111095
111038
111062
110987
111038
111036
111038
111025
111012
111000
110981
110965
110957
110896
110861
110777
110759
110759
110831
110864
110877
110862
110807
110772
110775
110833
110919
110929
110859
110882
110840
110818
110758
110892
110945
110819
110702
110548
110382
110159
109792
108858
106613
102437
95989.1
87391.3
75525.2
57206.2
36964.5
22817.7
14733.1
9081.32
6312.14
4596.42
4594.74
7162.86
6133.23
7025.23
11115.5
22202.3
36920.5
55573.7
73678.3
87417.9
96690.5
102466
105911
107973
109227
109989
110432
110680
110797
110838
110843
110832
110791
110747
110738
110768
110772
110767
110753
110719
110688
110657
110624
110579
110521
110448
110366
110653
110589
110457
109681
107028
98839.7
76746
49200.8
7294.61
14299.3
17228.8
14111.3
14028.9
22297.1
36445.5
44092
36704.7
22136.7
14776.4
15790.9
22898.3
35861.6
56068.1
73351.4
86244.1
95582.4
99251.9
95049.2
86101.2
73477
57383.6
57721.1
73775.5
86347.3
95354.4
102039
106107
108364
109647
110342
110710
110891
110978
111017
111026
111021
111010
110979
110907
110900
110940
110893
110940
110976
110980
110987
111004
111014
111013
111021
111023
111036
111039
111045
111039
111033
111006
111004
111003
110987
110972
110933
110905
110873
110814
110760
110678
110560
110438
110303
110157
110030
109942
109905
109865
109779
109790
109878
109941
109887
109862
109850
109780
109789
109843
109966
110088
110210
110284
110754
110719
110732
110738
110750
110761
110782
110800
110804
110776
110698
110518
110147
109476
108152
105971
101741
95604.6
85020.2
73430.9
56360
40707.9
23848.3
14050.8
7594.07
6389.66
4669.31
5999.27
8591.34
10229.3
8424.75
8500.16
8314.27
4192.24
5454.22
8026.1
15022.3
22147.4
38151.5
44838.6
36330.7
22962.9
13774
8466.95
10777
15167.2
22758.6
34618.6
55386.1
63688.7
53449.7
35727
22801.5
15314.7
14083.3
24887.5
36868.7
53107.1
73376.1
80344.2
71875.6
54409.5
37119.3
26518.6
24504.3
35713.5
54931.5
73183.4
86801.2
95750.7
101937
104471
101667
95449.2
86621.2
73941.1
56663.7
57144.3
74080.9
86518.9
95568.1
101887
105933
108281
109615
110329
110692
110863
110939
110968
110971
110953
110941
110938
110934
110908
110904
110910
110846
110824
110849
110896
110912
110890
110860
110877
110899
110913
110920
110919
110909
110895
110902
110859
110854
110843
110802
110775
110739
110684
110635
110591
110535
110480
110415
110353
110293
110237
110193
110162
110148
110169
110138
110146
110138
110111
110123
110150
110153
110185
110163
110224
110287
110348
110378
110417
110452
4499.66
3595.07
3223.95
14087.5
13665.3
13712.1
13718.2
23216.8
23403.2
13987.7
13670.7
23428.4
23104.3
24211.2
13639.3
23585.7
23438.1
23767.8
13358.4
13691.8
14300.5
15024.9
14526.3
14125.4
14730.7
19094.3
20599
46163.1
20539.9
23548.6
23440.3
23209.2
23640
14366.5
14556.7
24173.2
23769
14568.2
9566.18
6449.01
8225.8
8723.1
9021.54
5357.06
5082.87
6978.71
6303.13
11589.2
11757.3
24798.8
29486.9
22952.9
14408
9500.1
9202.91
15058.8
14469.2
14802.3
10062.4
23283.3
23675
23314.1
24144.3
13848.4
9633.31
5798.85
5074.9
5956.57
4528.85
3966.8
8362.26
10654.8
8383.57
4196.01
4715.04
4945.12
4885.67
5428.6
4302.31
9337.11
8275.25
14684.7
21802.3
37472.6
45213.2
37791.7
22535.5
13829.9
14459.9
9924.51
8817.28
9111.8
9245.38
15493.9
16053
24429
35650.7
54165.5
63439.5
54760.8
35797.3
22750.5
23827.6
14936.7
14596.6
23899.5
23414.4
37875.7
38679
37935.1
56296.3
73079.9
86247
95632
101913
105879
108239
109562
110262
110611
110769
110832
110848
110840
110824
110800
110743
110720
110716
110727
110718
110666
110627
110670
110671
110664
110652
110650
110621
110593
110590
110611
110585
110562
110521
110518
110502
110456
110437
110389
110372
110361
110336
110310
110286
110266
110256
110240
110221
110210
110216
110218
110210
110200
110138
110128
110203
110237
110248
110250
110264
110261
110273
110274
110340
110388
110405
110430
110453
110650
110626
110595
110613
110629
110641
110627
110567
110410
110068
109396
108100
105844
101563
95303.4
84625.1
73019.6
55739.3
40750.4
25277.4
14979.2
4425.78
5675.92
7209.7
14639.3
17788.6
14806.3
7642.75
8247.45
4918.77
4970.18
6138.37
5082.11
4736.1
5329.64
4581.94
4734.65
10211.5
11490.3
9039.42
8889.79
14389.5
16727.8
23133.9
38753.5
45666.4
38045.5
23936.4
25076.7
26332.5
38711.7
53832.7
71505.1
79135.7
71832.3
53531.5
37237.1
25711.9
16767.3
14593.2
14414.5
24511.8
24392.9
24217.7
14343.3
9235.75
8726.39
6312.9
5055.57
8337.82
8232.86
14837.6
18859.7
15650.3
14917.1
18844.6
23829.9
23938.7
24002.5
39456.4
38217.8
37392.2
37739.4
55351.4
56082.6
56687
56868.7
57215.7
73554.7
86480.3
95717.7
101948
105875
108215
109526
110226
110578
110741
110803
110805
110781
110786
110763
110703
110642
110660
110677
110618
110593
110584
110564
110551
110617
110625
110598
110580
110564
110534
110483
110450
110452
110456
110465
110399
110338
110348
110345
110330
110296
110265
110244
110225
110208
110214
110203
110203
110186
110142
110191
110188
110138
110156
110196
110201
110168
110204
110212
110244
110267
110319
110348
110367
110370
110367
110415
110449
110831
110786
110838
110833
110827
110806
110756
110742
110843
110884
110886
110869
110791
110851
110956
110912
110958
110861
110713
110511
110286
110068
109776
108906
106671
102477
96003.9
87385.4
75522.7
57244
37029.5
22862.5
14575.4
8999.77
6107.08
4354.22
3033.41
3000.4
2963.47
4438.21
6562.09
6527.92
7029.51
4558.26
2261.43
2865.6
1506.45
1195.95
1639.21
2089.56
3797.07
5740.56
9221.38
9228.96
10692.9
21721.7
38489.9
57474.1
74274.5
87425.8
96685.4
102596
106260
108401
109620
110313
110725
110845
110872
110965
111095
111176
111215
111232
111216
111190
111180
111143
111063
110895
110575
110504
110506
110426
109855
108682
106440
102423
96048.9
86826
74462.2
57201
36985.8
21107.3
11692.9
15762
22168.6
35725
57326.9
76016
87071.7
95729
102528
106828
108997
109749
109997
110278
110575
110780
110937
111053
111121
111153
111157
111142
111075
111032
111048
111050
111043
111029
111015
110995
110998
110942
110884
110845
110813
110782
110773
110816
110833
110815
110855
110782
110766
110837
110931
110951
110945
110967
111010
111007
111007
110939
110828
110657
110457
110374
110311
109816
108683
106336
102204
95921.1
87443.8
75599.4
57476.1
37637.3
24930.8
16995
11004.1
8933.78
8359.62
4568.79
4889.79
2781.49
1032.64
673.151
675.732
930.679
695.998
1872.8
3580.33
6361.03
8903.7
8896.81
12297.7
24670
39157
56762.9
73766.1
87497.4
96811.7
102655
106184
108298
109519
110238
110669
110940
111081
111137
111188
111239
111263
111271
111267
111224
111174
111165
111224
111186
111106
111066
111088
111098
111100
111093
111071
111048
111039
111032
110987
110934
110870
110885
110869
110811
110775
110823
110919
110938
110882
110894
111024
111021
110987
110914
110818
110714
110554
110206
109512
108283
106112
102452
96553.2
87596.1
74838.2
57423.9
37992.5
23042.9
14077.2
10610.7
10288
9256.6
7241.84
2564.17
2695.06
818.437
994.344
595.632
1365.5
1365.29
797.595
615.018
618.519
874.284
2201.94
2645.31
6109.77
11063.6
14165.6
22574.5
37155.7
56577.7
73701.1
86989.1
96639.1
102752
106258
108259
109450
110200
110681
110982
111162
111266
111202
111231
111304
111360
111353
111295
111271
111232
111283
111314
111300
111274
111252
111191
111101
110921
110624
110147
109408
108221
106228
102709
96566.6
86931
73674.1
56492.6
37753.5
22980.5
13841.6
10124.2
6443.51
4565.9
5981.19
13077.1
14121.4
15292.9
14741.2
23626
25494.9
26314.3
24421.2
39545.2
40095.4
38703.8
37486.6
55913.8
55653.7
55688.1
55475.9
71642.3
72059.6
72428.4
72988.4
86717
86449.8
86232.1
85897.9
96113.4
96275.5
96361.2
96481.3
102612
102541
102492
102421
106070
106101
106130
106160
108229
108237
108237
108234
109545
109521
109498
109466
110235
110273
110309
110350
110755
110718
111021
111061
111247
111205
111307
111354
111361
111236
111219
111281
111057
111107
111105
111093
111083
111092
111096
111038
111044
111036
110990
111007
111068
111099
111119
111111
111058
110967
110826
110625
110370
110097
109788
108979
106784
102485
95712.3
87067.5
75969
57327.8
35785.7
22191.9
15526.8
8863.02
8911.05
4648.44
3699.36
2024.34
1672.84
1668.51
1677.95
1642.26
2042.28
3730.12
4712.9
5729.62
9011.03
9446.67
10651.2
22131.1
38874.7
57462.7
74255.6
87401.4
96628.5
102562
106261
108385
109551
110198
110510
110568
110713
110881
110988
111052
111067
111096
111101
111065
111058
111052
110995
111008
110909
110745
110483
110221
110145
109730
108696
106476
102445
96062.8
86835.3
74383.4
57282.7
37486.4
21436
11436.1
12513.8
14435.4
8872.67
4790.38
3778.31
2069.3
1594.23
1219.64
1604.9
2241.36
2837.36
3006.61
5045.67
7179.09
6652.48
2730.14
890.327
454.057
1525.55
839.943
854.614
1064.5
1078.01
693.843
713.51
706.709
706.29
1845.91
3524.77
6254.62
9015.21
9008.89
12502
24712.5
39063.3
56690.9
73732.3
87411.2
96706.4
102554
106101
108212
109419
110129
110548
110784
110877
110947
111017
111070
111078
111052
110998
110913
110760
110494
110041
109313
108132
106131
102610
96474.8
86857.9
73666.1
56437.6
37514.3
22880.8
13377.2
10421.9
6736
2686.22
6314.66
11314.3
13885.3
22408.9
36990.1
56517
73667.4
86934.2
96570.3
102667
106157
108146
109329
110070
110528
110793
110931
111018
111014
111012
111029
110863
110574
110103
109340
108110
106057
102527
96414
86651.1
72925.7
55868.5
37439.7
23532.4
14690.5
13566.9
24867.1
38710.5
55945.7
72942.2
86793.8
96502.5
102503
105979
108045
109288
110020
110423
110629
110728
110763
110721
110672
110655
110685
110690
110676
110658
110649
110635
110608
110562
110519
110480
110420
110322
110267
110190
110065
109927
109872
109929
109914
109965
110074
110168
110060
109903
109794
109797
109689
109797
109782
109874
109837
109727
109736
109710
109809
109723
109666
109679
109669
109768
109605
109750
109565
109665
109734
109818
109659
109630
109664
109922
110593
110071
109559
109814
109270
109365
109988
110205
109832
109848
109768
109798
109979
109961
110253
109883
109731
109896
110020
110085
110217
110287
110417
110499
110604
110702
110810
110927
111050
111141
111213
111227
111205
111191
111236
111296
111261
111241
111197
111187
111199
111182
111235
111229
111264
111249
111231
111292
111294
111226
111195
111131
111209
111169
111258
111336
111389
111320
111327
111299
111210
111054
110792
110353
109602
108326
106104
102335
95938.9
86202.9
72539.4
56659
39804.8
25111.9
13269.2
111114
111068
110899
110613
110136
109362
108107
106010
102437
96278.9
86382.4
72360.8
55593.1
38666.4
25528.4
15372.9
15343.2
24640.8
38146.8
55639.7
72521.8
86420.5
96267.4
102407
105983
108087
109327
110037
110419
110607
110687
110715
110635
110628
110650
110635
110616
110587
110576
110572
110560
110527
110471
110429
110399
110334
110234
110097
109947
109868
109794
109768
109766
109794
109829
109808
109907
110005
110084
110184
110324
110275
110374
110435
110481
110516
110546
110569
110588
110606
110625
110638
110645
110632
110607
110625
110709
110702
110628
110451
110087
109424
108131
105969
101766
95651.1
84929.1
73221
55775.8
40928.9
24626.7
14270.9
36578.9
72950.2
110414
109646
108341
106073
102223
95729.5
85845
72076.9
56353.4
40017.2
25066.2
13176.1
13484
22227.7
36865.6
55214.5
71198
84844.3
95542.1
102370
106175
108222
109349
109972
110302
110466
110538
110563
110562
110519
110419
110402
110445
110476
110469
110428
110384
110370
110355
110311
110265
110222
110171
110116
110036
109925
109752
109801
109580
109734
109998
109875
109978
109936
109931
109807
109616
109766
109701
109814
110006
109997
110127
110186
110281
110329
110426
110492
110587
110656
110753
110869
110973
111067
111141
111167
111187
111159
111156
111200
111170
111143
111101
111170
111158
111142
111142
111127
111095
111058
111091
111124
111128
111106
111041
110943
110968
110838
110599
110172
109502
108330
106553
103050
97158.5
86541.2
73985
54755
39764.6
23742.5
13133.2
8748.05
6590.06
2760.94
2971.25
826.324
445.718
414.335
442.757
612.528
584.079
711.098
16914.5
26602
38371.4
55153.8
72205.7
86275
96102
102256
105905
108062
109310
110010
110381
110562
110640
110665
110656
110640
110620
110587
110547
110528
110522
110523
110497
110453
110401
110367
110327
110264
110172
110046
109914
109786
109776
109797
109759
109774
109649
109672
109555
109698
109685
109743
109763
109707
109556
109562
109575
109638
109757
109499
109585
109665
109729
109777
109689
109498
109523
109655
109720
109718
109622
109608
109703
109688
109624
109447
109720
109783
109777
109736
109738
109590
109725
109763
109797
109792
109788
109911
110025
110113
110175
110238
110304
110337
110319
110267
110204
110124
110017
109897
109795
109828
109917
110043
110145
110215
110274
110323
110318
110361
110345
110366
110395
110445
110479
110482
110443
110421
110495
110560
110587
110592
110569
110498
110334
109997
109358
108208
106174
102529
96035.5
85477.5
71138.9
55311.4
38878.6
22996.9
11963.6
13729.1
27166.4
40367.3
54876.6
71642.4
86060.9
96047.6
102223
105902
108072
109313
109996
110352
110524
110599
110624
110622
110601
110564
110502
110473
110496
110498
110480
110441
110394
110359
110409
110442
110470
110495
110509
110520
110539
110567
110584
110600
110617
110628
110608
110538
110372
110027
109348
108099
105856
101967
95409.4
85514.7
71765.6
55997.3
39826.8
25873.4
14130.2
39074.5
46840.1
39204
22956
23102.6
18356.5
14190
23733.5
23366.5
23579.8
38890.4
38505.6
56530.8
56700.1
38147.6
38013
56173.4
53937.1
80605.5
55318.9
37595.3
38675.1
47869.6
40121.6
52475.7
54344.4
55748.9
39471.4
48138.3
39909.6
22942.3
14095.8
17781.4
20057.4
19749.4
19022.9
9984.7
19382.4
10101.8
10134.8
10281.6
6872.22
5183.77
5296.42
8987.85
9372.68
16203.8
18264
13961.9
14431.5
16865.7
24477.4
24485.2
24284.7
39402.1
46170.4
38272.5
37920.4
55997.7
57492.9
72226.4
84478.2
94252
98533.1
94177
84348.5
71493.4
71328.7
56539.6
57087.3
72436.9
85131.7
94736.4
101496
104307
101465
94842.2
85185.7
71592.4
55303.2
37698.5
38898.5
24972.1
24820.2
13756.2
9170.24
8147.49
8191.01
5030.9
4791.35
9350.92
9085.83
4403.57
5045.44
4891.31
8923.9
8999.95
14893.9
14706.1
24593.7
25063.1
25384.4
14491.5
15951.2
8548.23
4764.25
5153.04
4865.05
6404.68
8439.56
8401.51
16336
15833.5
14979.4
14601.9
24041.5
24393
25070.3
13837.5
15357
22123
46120.1
21309.8
19240.2
20520.9
19383.2
21508.2
15296.2
19841.1
14959.7
14270.8
15163.4
14228.4
14661.8
14260.2
25925.5
25273.9
25498.5
26262.7
31468.1
40009.7
54383.5
71680.8
78412.2
70446.2
54600.4
38753.6
38133.4
25473.2
25791.9
39113.6
39810.1
39665.3
39451.5
55900.9
56069.3
71780.5
71590.5
84483.7
85014.5
84445.6
94580.4
101601
102184
105975
108265
109528
110184
110502
110610
110691
110723
110719
110697
110631
110566
110565
110581
110574
110549
110532
110490
110476
110451
110364
110356
110371
110396
110362
110294
110297
110237
110230
110254
110272
110282
110270
110178
110157
110245
110204
110128
110152
110217
110222
110239
110245
110176
110104
110107
110210
110265
110298
110312
110330
110341
110357
110358
110359
110347
110396
110409
110420
110443
110444
110466
110438
110446
110408
110354
110314
110306
110276
110309
110335
110307
110307
110311
110269
110211
110268
110182
110136
110104
110175
110196
110100
110146
110131
110221
110082
110125
110191
110187
110126
110081
110157
110204
110193
110138
110146
110175
110157
110245
110269
110271
110226
110215
110235
110263
110306
110391
110415
110392
110461
110475
110494
110515
110464
110546
110516
110589
110595
110598
110645
110689
110729
110738
110704
110659
110508
110166
109477
108164
105796
106511
106533
108537
109659
110239
110458
110617
110707
110736
110736
110724
110705
110666
110570
110547
110585
110553
110477
110420
110409
110397
110394
110386
110374
110390
110393
110374
110338
110299
110291
110292
110266
110245
110246
110243
110238
110173
110129
110191
110205
110161
110157
110151
110141
110098
110045
110094
110110
110190
110224
110209
110191
110129
110155
110226
110256
110267
110259
110330
110385
110402
110432
110434
110473
110495
110432
110441
110392
110392
110366
110381
110371
110325
110351
110336
110290
110309
110242
110183
110139
110211
110248
110216
110243
110238
110221
110209
110159
110185
110118
110172
110161
110117
110174
110180
110189
110165
110183
110194
110199
110172
110198
110191
110201
110197
110164
110184
110148
110168
110186
110196
110199
110202
110215
110223
110224
110243
110254
110264
110267
110285
110318
110333
110353
110366
110383
110405
110417
110449
110499
110493
110460
110447
110486
110463
110400
110369
110371
110359
110354
110346
110343
110359
110366
110347
110352
110332
110310
110285
110286
110302
110287
110278
110266
110258
110243
110208
110219
110212
110193
110157
110159
110213
110225
110279
110294
110311
110335
110351
110380
110341
110390
110338
110397
110433
110441
110347
110138
110287
109910
109213
107811
105662
101514
95665.4
85513.4
71489.4
110523
109832
108403
106166
101779
95613.3
84960.4
73315.3
56068.7
40995.9
25430.4
14379.8
10108
48887.4
47788.2
46651.5
39590.3
38789.2
56573.6
59601.4
59219.7
75267.2
88730.9
97630.7
102975
106260
108356
109648
110415
110851
111090
111218
111283
111323
111342
111348
111350
111357
111363
111377
111391
111402
111410
111418
111432
111445
111463
111469
111467
111472
111471
111480
111478
111490
111488
111497
111498
111495
111492
111484
111478
111464
111450
111425
111394
111359
111309
111273
111216
111200
111208
111182
111124
111175
111194
111293
111310
111386
111428
111461
111487
111493
111525
111514
111542
111536
111504
111531
111524
111497
111519
111508
111501
111486
111478
111464
111455
111438
111418
111407
111385
111369
111371
111363
111376
111368
111349
111309
111259
111150
110942
110564
109887
108699
106626
103044
96976.4
87660.8
74719.3
61494.4
59119.1
74056.7
81384.2
74414.1
74921.7
75353.6
74595.3
76727.6
87764
96369.1
102542
106434
108688
109927
110590
110940
111123
111220
111271
111292
111310
111321
111331
111339
111346
111349
111354
111360
111360
111373
111398
111412
111425
111431
111434
111438
111437
111443
111443
111449
111450
111454
111453
111450
111449
111443
111437
111425
111412
111391
111364
111334
111294
111257
111229
111213
111273
111258
111180
111146
111126
111042
111014
111040
111005
111100
111134
111112
111194
111225
111258
111286
111306
111281
111318
111322
111323
111327
111326
111329
111322
111319
111315
111311
111309
111307
111308
111307
111309
111303
111292
111290
111258
111280
111265
111260
111227
111240
111208
111179
111200
111218
111223
111214
111208
111194
111183
111137
111041
110853
110494
109831
108650
106612
103168
97344.3
88080.3
74096
60150.1
60313
76040.4
88418.4
97063.1
102698
106201
108345
109618
110358
110775
111004
111125
111187
111214
111233
111253
111256
111258
111228
111238
111266
111286
111298
111313
111326
111335
111346
111352
111361
111366
111364
111367
111365
111372
111372
111376
111370
111366
111367
111363
111362
111352
111344
111325
111299
111271
111233
111192
111152
111207
111235
111274
111312
111338
111363
111380
111391
111401
111404
111408
111408
111410
111412
111410
111410
111404
111404
111400
111401
111397
111393
111387
111374
111364
111342
111323
111313
111306
111303
111299
111304
111299
111286
111281
111248
111269
111236
111183
111087
110907
110562
109905
108660
106360
102351
95982.9
87456.1
77577.1
61722.6
40339.2
42830
61064.8
58460.1
40930.6
41116.5
39418.1
46613.2
38858.4
38654.4
56657.5
58546.8
59059.1
58786.6
56225.2
56349
74209.5
74992.2
74919.2
74252.4
81388
73935
56320.3
73931.1
73977.1
73296
86441
86910.2
86734.2
73262.5
56233.6
38286.5
37549.6
39006.6
38976
38099.2
56598.7
56379.6
73413.2
73331.5
86002.9
86467.7
86191.1
72597.8
56203.4
37487.3
36984.9
38189.6
37359.3
55057.6
55526.4
55547.5
73023.8
72427.4
72911.8
74711.3
73865.6
87450.1
96035.8
102010
105919
108267
109586
110289
110642
110807
110879
110898
110892
110883
110852
110779
110765
110775
110813
110805
110777
110729
110738
110781
110787
110788
110785
110769
110757
110755
110747
110743
110734
110725
110686
110658
110646
110609
110582
110561
110493
110435
110394
110361
110309
110275
110276
110260
110207
110158
110216
110228
110237
110234
110229
110221
110248
110262
110290
110301
110321
110333
110347
110357
110379
110396
110422
110441
110531
110541
110571
110615
110633
110575
110611
110545
110545
110411
109716
107211
99036.1
79026.5
47685.4
16363.8
15833.2
15991.1
25281.2
25030
39875.7
39476.2
39457.2
25959.9
26612.6
26772.3
26734
26002.2
38465.2
40278.6
44856.2
46551.1
50354.8
56681.9
71773.8
78097.1
69597.7
55038
39920.8
39227.8
40279.3
42210.7
55661.5
55197.5
54608.7
70323
70305.2
70104.4
84014.5
84146.9
84212.5
84972.4
90772.7
95579.7
101820
105845
107417
105767
101692
94731.6
94641.7
94822.3
86142.2
84992.9
94250
101130
104040
101141
94370.8
84515.2
70938.6
55454.1
56645.1
70763.3
84168.5
94507.4
101670
102059
105913
105884
106447
108450
109589
110176
110390
110564
110658
110695
110674
110617
110616
110608
110534
110458
110437
110472
110502
110492
110477
110462
110442
110428
110422
110420
110401
110376
110273
110268
110320
110340
110331
110307
110294
110292
110302
110253
110241
110209
110241
110274
110310
110318
110326
110328
110331
110343
110354
110354
110348
110374
110407
110426
110437
110434
110395
110411
110501
110528
16672.5
28192.8
40163.9
55735.2
72210.9
85820.1
95691.7
102056
105841
108031
109259
109926
110270
110438
110515
110545
110532
110463
110387
110431
110468
110477
110463
110461
110430
110394
110385
110366
110328
110272
110219
110165
110095
110009
109911
109962
109948
109879
109945
109784
109827
109953
110012
110092
110079
110183
110227
110306
110338
110407
110468
110549
110603
110691
110792
110897
110989
111072
111143
111157
111122
111113
111061
111107
111102
111146
111136
111102
111098
111082
111073
111089
111117
111105
111108
111103
111089
111062
111022
111015
111064
111081
111033
111037
111037
111084
111071
111051
110999
110897
110692
110280
109606
108208
106096
101662
95737.3
84480.6
73922.7
55439.7
41728.7
23729.3
14387.3
6990.45
5971.26
3259.79
982.865
19366.5
19497.8
19238.3
6971.95
6776.88
6358.58
19122.4
18902.7
14771.9
15793.7
14972.6
18558
23146.2
23012.6
23386.1
39715.2
37950.6
36934.4
37600.6
37325.7
56329.2
56677.1
56140.8
74562.6
87074.7
95910.2
101981
105888
108243
109565
110268
110620
110782
110849
110868
110866
110854
110832
110763
110744
110758
110776
110767
110689
110679
110700
110735
110744
110743
110738
110713
110698
110688
110681
110671
110636
110624
110616
110577
110552
110527
110439
110452
110412
110377
110355
110327
110299
110280
110273
110256
110230
110162
110195
110207
110207
110238
110254
110271
110278
110297
110343
110326
110349
110329
110358
110343
110393
110428
110459
110473
110505
110565
110540
110432
110164
109573
108351
106167
101915
95785.6
84977.2
72248
54486.9
40202.9
38376.5
39869.9
39149.9
40191.5
42011.1
39906.3
38722.1
54539.4
54293.5
55560.2
55067.8
54496.1
54937
56621.2
50328.4
46503.5
40227.9
44908.3
34117.5
34066.9
47257.4
47250.1
60445.6
56908.5
59148.8
70401.1
71670.3
69490.8
70216.2
70188.1
70036.8
71599.2
70332.6
70836.3
70716.5
72170.3
71417.9
71268.7
72387.6
71531
71496.8
71762.3
73607.3
74274.1
73275.4
73474.3
72877.6
73027.3
73914
74536.6
75485.4
73754
73396.1
71810.7
73164.2
73928
74080.2
73344.9
73519.7
73839.4
73191.6
86626
95479.7
95276.2
86318.8
86079.4
86209.9
86468.1
86555.9
86725.9
86648.9
80303.8
88492.8
87359.9
86888.2
87010.4
86911
86191
85858.4
86404.8
86217.3
86305.1
86685.4
86667
79084.3
86336.5
85117.4
85081.6
84405.4
84285.3
84425.8
84102.3
84450.2
84903.1
78302.6
86076.5
83925.6
84065.2
84124.5
84916.8
77995.5
86547.2
84804.7
84875.9
69882.2
72504.7
72503.2
60452.6
56960
59169.2
70457
69924.8
84905.9
84989.8
84983.6
95370.4
96137.2
95738.8
96201.1
96302.4
95528.7
94675.1
94576.1
94783.9
94199.6
94326.7
94452.3
94210.1
94125.4
94527.2
94688
94781.4
95215.5
95198.1
95614.2
95488
95575.5
95641.3
95327
95556.5
95803.9
95813.3
95611
95935.7
96015.1
95541.3
95650.2
95347.1
95504.7
95523.1
94928.1
99140.6
102581
102001
101922
101605
105921
104109
106466
105945
105786
105977
105773
101771
101523
101816
101848
101798
101886
101663
101852
101830
101807
101724
101851
101864
101722
101783
101503
101574
101395
101437
101535
102126
98483.7
102024
101622
101104
101085
101129
101714
101649
101774
101896
102440
102655
102803
102287
102300
95375.5
96159
95773
84855.1
86593.3
96225.1
96328.4
101926
102454
102672
102812
106314
106299
106292
106301
106437
106117
105702
105801
105725
105899
105431
106147
106397
105826
105854
105900
105710
106434
106438
105721
105581
105729
105679
105766
105750
105730
105741
105678
105728
105591
105767
105668
105906
106582
106239
104318
106098
105898
102015
95740.8
86388.9
72976.6
15271.1
26370.1
26158.9
25956.9
25959.8
19767.6
40114.4
40104.5
39219.4
40245.8
40444.5
39862.7
40605.7
40300.4
55432.3
55048.4
55159.6
55749
56261.9
54336
53771.1
71811.3
71697.6
71142.9
71014.8
84743.8
84753.5
84410.1
78217.8
84503.3
95892
95735.9
95115
94855.8
101640
102078
101820
101885
94883.4
94873
101778
102271
102430
99994.3
95961.6
84591.2
71699.4
54177.4
39326.3
38689
39754.8
39029.7
38063.2
54851.9
54840.4
55406.2
71717.1
71530.9
72053.6
73821.5
74340.4
86373.4
95555.6
101809
105790
108156
109487
110199
110558
110723
110785
110789
110789
110746
110674
110633
110632
110669
110660
110627
110566
110487
110533
110559
110553
110552
110520
110492
110481
110491
110480
110457
110446
110412
110361
110314
110309
110328
110260
110226
110211
110194
110186
110210
110177
110171
110132
110104
110162
110196
110196
110191
110193
110195
110210
110216
110225
110252
110337
110302
110334
110376
110434
110444
110473
110489
110481
110386
110143
109599
108436
106477
102147
96195.6
84168.3
72557.7
46744.5
46965.9
47125.1
39160.4
39806.6
47337.2
54014.1
54129
52493.2
78843.9
53648.9
38641.5
39316.6
46480.9
40024.6
51287.8
52727.8
54348.2
55167.8
71436
70767.8
84752.8
85100.4
85176.3
70969.1
72068.1
79454.7
72491.6
71159.1
84643.8
84103.1
84855.7
95654.8
94944.7
94665.7
95163.3
101771
101755
101151
105465
105938
108261
108663
109650
110026
110325
110520
110606
110619
110644
110628
110577
110587
110587
110573
110560
110554
110557
110543
110528
110513
110487
110494
110494
110491
110482
110470
110460
110456
110455
110418
110413