/*--------------------------------*- C++ -*----------------------------------*\
  =========                 |
  \\      /  F ield         | OpenFOAM: The Open Source CFD Toolbox
   \\    /   O peration     | Website:  https://openfoam.org
    \\  /    A nd           | Version:  7
     \\/     M anipulation  |
\*---------------------------------------------------------------------------*/
FoamFile
{
    version     2.0;
    format      ascii;
    class       surfaceScalarField;
    location    "18.9";
    object      phi;
}
// * * * * * * * * * * * * * * * * * * * * * * * * * * * * * * * * * * * * * //

dimensions      [0 3 -1 0 0 0 0];

internalField   nonuniform List<scalar> 
44249
(
-0.00268596
0.000773135
-0.000948434
-0.000107442
-0.000249581
-0.00340042
0.000670265
-0.000851616
7.58653e-06
0.00088812
-0.00292834
0.00062388
-0.000829801
4.08134e-05
-0.00030646
-0.00372511
0.000554373
-0.000780043
0.000173331
0.000848783
-0.00313869
0.000532274
-0.000747811
0.000201481
-0.000572028
-0.00391967
0.000482965
-0.000679073
0.00026268
0.00071414
-0.00320284
0.000461091
-0.000637936
0.000241393
-0.000781063
-0.00382622
0.00039476
-0.000543572
0.000338477
0.000433159
-0.00299428
0.00034229
-0.000477665
0.000455584
-0.00115195
-0.00352397
0.000275355
-0.000366421
0.000762526
-0.000142033
-0.00227325
0.000218297
-0.000347195
0.00129689
-0.00241824
-0.00208323
0.00019725
-0.000217943
0.00133439
-0.00150411
-0.00143226
0.00030553
-0.000369717
0.00102047
-0.00160678
-0.00182565
0.000192795
-0.000114808
0.00101362
-0.0006984
-0.00211473
0.000112076
6.87476e-05
0.000474853
-0.000365971
0.000405339
-0.000635687
0.0010462
-0.000411011
0.00175476
-3.29301e-05
-4.60176e-05
-0.000523889
0.00186349
0.000383184
1.17935e-05
-0.000503964
0.00149663
0.000264404
0.000210217
-0.000107969
-0.000777535
0.000848453
0.000635988
0.000789571
-0.000880191
0.00026257
0.000104441
-0.000422051
-1.33494e-05
-6.20441e-05
7.81749e-05
-0.00132159
0.000169794
0.000651021
-0.000422706
-0.00122679
0.000820653
0.000906951
-0.000973423
-0.000293035
0.000573253
0.000270464
-0.000448019
-0.000143387
5.71424e-05
-0.000186095
0.000410084
0.000180602
9.5191e-05
0.000510567
0.000425752
0.000146904
-0.00166193
0.000947261
0.000662761
-0.00020801
-0.000791996
0.000660987
0.000486003
0.000305631
0.000320573
0.000617466
0.000892658
0.000217954
0.000102899
0.000623137
-0.000680283
0.000597675
0.000351994
0.000615597
-0.00150013
0.000778663
0.000728593
0.000134544
0.000356272
-0.00259187
-4.70665e-05
-0.000702264
-0.00326219
5.79785e-05
0.000500455
-0.00275572
7.0702e-05
-0.000650421
-0.00351714
0.000193614
0.000511652
-0.00292838
0.000203708
-0.000844869
-0.00369283
0.000260149
0.000445675
-0.00300763
0.000213731
-0.000986969
-0.00364587
0.000280827
0.000243891
-0.00283967
0.00033779
-0.00126677
-0.00337209
0.000633068
-0.000242028
-0.00220098
0.00117608
-0.00251809
-0.00207232
0.00128523
-0.00158794
-0.00134764
0.000910963
-0.0017636
-0.00161793
0.000705952
-0.000738846
-0.0018582
7.06121e-05
-0.000300385
0.000712695
-0.000594724
0.0012683
-0.00163987
-0.000607829
0.000498653
0.000622085
0.000636403
0.00129258
-0.000803425
-0.000460236
0.001685
-2.41471e-05
-0.000414647
0.001743
0.000155536
-0.000202013
0.00194429
0.000176525
-0.000167573
0.00168752
0.000276452
0.000345715
-0.000365229
-0.000964948
0.00110642
0.000661515
0.00088429
0.000206061
-4.63725e-05
0.00116766
-0.000171227
-0.00015419
0.00137127
0.000173035
-0.000222232
-0.000154466
0.00160919
0.000174648
-0.000305343
-0.000107282
0.00189721
0.000184631
-0.000317459
-0.00015529
0.00207438
0.000291485
-0.000331213
-0.000137438
0.00214001
0.00027455
-0.000304439
-3.57332e-05
0.00202327
0.000281755
-0.000229438
6.44367e-05
0.00182263
0.000144571
-9.96856e-05
0.000155756
0.00158769
-6.66091e-05
1.69618e-05
0.000284709
0.000924305
6.71987e-05
0.00029706
0.000299051
0.00208765
0.00101913
-0.00108656
-0.00109581
0.00243973
-0.000552034
-0.000253064
0.000453207
0.00186997
-0.000457851
0.000628851
0.000398677
0.00138958
-0.000415095
0.00044461
0.000450903
0.000653459
0.000314371
0.000289526
0.000132051
0.00159044
0.000601279
-0.000625741
-0.000912392
0.00132082
-0.000704864
0.000671859
0.000302569
0.000877345
-0.000405039
0.000484065
0.000364317
0.00132558
-0.000626516
0.000901031
-0.00072283
0.00137983
-0.000689146
0.000203665
0.000431292
0.000857837
-0.000435344
0.000631296
0.000325925
0.00125664
-0.000610074
0.000905068
-0.000693774
0.00126349
-0.000631955
0.000199234
0.000425985
0.000769839
-0.000356449
0.000563948
0.000286148
0.00123768
-0.00053466
0.00063747
-0.000570491
0.00081831
-0.000553485
0.000681999
0.000290839
0.00132418
-0.000704173
0.000788517
-0.000590071
0.000966112
-0.000705984
0.000722935
0.000341132
0.001545
-0.000772455
0.000852263
-0.000658562
0.00108836
-0.0007753
0.000796819
0.00043519
0.00166721
-0.000835841
0.000933876
-0.000676718
0.00117164
-0.000845953
0.000866734
0.000474931
0.00180644
-0.000921351
0.00100452
-0.000717773
0.00125767
-0.000925019
0.000924469
0.000549476
0.00186247
-0.000966337
0.00107086
-0.000709071
0.00117671
-0.000941555
0.00110762
0.000519799
0.00183011
-0.00113469
0.00115773
-0.00067613
0.000714901
0.00110943
0.000388465
-0.000382713
0.00118775
0.00129458
-0.000478108
-0.0012891
0.00189785
-0.00207728
0.00245291
-0.0010857
0.00181837
-0.00152437
0.000734773
0.000869093
0.00209593
-0.00190913
0.00260428
-0.000972269
0.000704124
0.00213463
0.000295056
-0.0010379
0.000534882
0.00242257
-0.000444481
-0.00180856
0.001156
-0.00333419
0.00359556
-0.000882292
0.000856438
-0.00222944
0.00208349
0.000445457
0.000847003
-0.00196652
0.00243356
-0.000457232
0.00044533
0.000876668
-0.000626374
0.000151628
0.000149993
0.00106236
-0.000125145
-0.000642011
0.00116541
-1.0814e-05
-0.00100467
0.00203514
-0.000440971
-0.000181871
-0.000246542
0.00258505
-0.000112184
-0.000253546
-0.000184129
0.00308639
-0.000643281
-0.000226978
0.000368636
0.00304056
-0.000703083
-0.00095931
0.00170829
0.00250603
-0.00213831
-0.00147675
0.00414964
0.00126791
0.000617612
0.000620947
0.000839682
-0.00208095
-0.000394756
-0.0021641
-0.00475494
0.00306849
-0.00253933
-0.000790761
-0.000986643
-0.000113617
-0.0031316
0.000458761
-0.000865174
-6.02638e-05
-0.00255013
-0.000765153
-0.000774995
1.86166e-05
-0.00321725
0.000426013
-0.000670419
0.000118272
-0.0027279
-0.000696519
-0.000627185
0.000114885
-0.00349375
0.00045941
-0.000557669
0.000225973
-0.00292044
-0.000873366
0.000611952
-0.000537557
0.000225927
-0.00369345
0.000418412
0.000565189
-0.00048773
0.000276953
-0.00301515
-0.00100313
0.000569172
-0.000467619
0.00022366
-0.00365763
0.000231362
0.000528605
-0.000405087
0.000287125
-0.00284813
-0.00127473
0.00048546
-0.000356837
0.0003369
-0.0033785
-0.000239812
0.000438062
-0.00029349
0.000625469
-0.00220365
-0.00250902
0.000408265
-0.000236553
0.00116299
-0.00207354
-0.00157516
0.000387516
-0.000214043
0.00127115
-0.00134858
-0.00175261
0.000436756
-0.000310342
0.000901647
-0.00161726
-0.000186363
-0.000725965
0.000485271
0.000695523
-0.00186293
-0.000283895
-9.54513e-05
0.000567636
5.81202e-05
0.000822464
-0.000570041
-0.000396305
0.000712402
0.000710377
-0.00129033
-0.000736676
0.0007159
0.000844936
-0.000509732
-0.000341043
-0.00034637
0.000239152
0.000431461
0.000391374
0.000550814
0.000446006
0.000661671
-0.000292127
0.00116911
-5.03988e-05
-0.000481301
0.00151756
4.98869e-05
-0.000242871
0.00163647
0.000230317
-0.00017261
0.00200493
0.000406465
-0.000429224
0.00220635
7.6415e-05
0.00038223
-0.000660183
0.00249792
-0.000133141
0.000399663
-0.000558124
0.00215585
-0.000233839
0.000852392
-0.000276467
-0.00156272
0.00131315
0.000928981
0.00147647
-0.00182915
0.000175888
-0.000143309
-0.00156252
-7.06813e-05
-0.000329268
-4.11315e-05
-0.000338495
0.000974227
-0.000180673
0.00123258
-0.000154335
0.00180782
-0.000214697
0.00187736
-0.000166169
0.000388031
0.00202478
8.63357e-05
4.08694e-05
0.00155608
0.000158664
0.000591811
0.00136226
0.000179478
0.000158941
0.00100146
7.59482e-05
0.000218257
0.002297
-0.00123783
-0.0012166
0.00115895
0.00262584
-0.000457158
-0.000284155
0.000412679
0.00205965
-0.000346119
0.000360399
0.00159461
-0.000391528
0.000398567
0.00107477
-0.000320929
0.000425616
0.00160554
-0.000646715
-0.000876769
0.000992696
0.00171204
-0.000715681
0.000107017
0.000502327
0.0011557
-0.000526415
0.000377833
0.000516679
0.000233249
4.77219e-07
0.00117978
-0.000496421
-0.000793187
0.000959683
-0.000661521
0.000192366
0.000660293
-0.000357422
0.000221439
0.00114381
-0.000546541
-0.000546959
0.000927904
-0.000624735
0.000208899
0.000440761
0.000179301
-4.86616e-05
0.00104387
-0.000436826
-0.000700745
0.000477445
0.000155132
-0.000142196
0.00111388
-0.000490214
-0.000850179
0.000810921
-0.000617817
0.000214795
0.0013197
-0.000681038
-0.000599972
0.000878633
-0.000649374
0.000315221
0.00139976
-0.000749833
-0.00060685
0.000929631
-0.000715132
0.000339442
0.00146803
-0.000827598
-0.000631819
0.000960226
-0.00079757
0.00038051
0.0015356
-0.00095654
-0.000584718
0.00061945
0.000295805
-0.00032115
0.00104774
-0.000451786
-0.00111084
0.00162227
-0.00173949
-0.000945334
0.00211029
0.00151168
-0.00122924
0.000614071
0.000725765
0.00180702
-0.00148127
-0.000890894
0.000713163
0.000281539
-0.000712005
0.000804635
-0.000480902
-0.00151922
0.00140971
-0.00275097
-0.000964707
0.00311068
0.00136656
-0.00205766
0.000578274
0.00152248
0.00113738
-0.00236581
-0.000738717
0.000290295
-0.000102714
-0.00127945
-0.000144099
-0.000247112
-0.00128498
0.000228445
-0.00241702
-0.000264366
0.00230857
0.00113204
-0.000877871
-2.6159e-05
0.00253977
-0.0015395
-0.00130511
0.00143644
0.00339485
-0.00100494
-0.000272515
0.000422717
0.00460309
-0.000890557
-0.000758703
0.00582008
-0.000319014
-0.00101007
0.00574624
0.000357935
-0.000926043
0.00390731
-0.00482169
0.00288393
0.00377699
0.00685854
-0.000151464
-0.00104609
-0.00175392
0.00969273
-0.00335508
-0.00314655
0.00366779
0.00745584
0.00421705
-0.00797505
0.00599514
-0.0115377
-0.00243849
0.00169761
0.000692966
-0.00152415
-0.000642551
-0.000591534
-0.00150707
-0.00194753
0.000781345
-0.00182197
-0.000390941
-0.00047163
-0.00172617
0.00132562
-0.00192638
-0.00813476
0.00576836
-5.2175e-05
-0.00753047
-0.00182527
-0.00872844
-0.00632118
-0.000503453
0.00460285
0.00281451
-0.00633836
-0.00549675
0.00401042
-0.000975225
7.30529e-05
-0.00722926
-0.00456998
-0.000729796
0.00324645
0.00294302
-0.00611961
-0.00371843
0.00302262
-0.000708032
0.000295763
-0.0079134
-0.00263942
-0.000134418
0.00238568
0.00218054
-0.00658449
-0.00186542
0.00209198
0.000788938
-0.00234263
-0.00826583
-0.000923018
0.00179289
0.00157701
-0.000767068
-0.00464882
-0.000460313
0.00123144
0.00657859
-0.0109649
-0.00790363
0.000270066
0.00259446
0.00168328
-0.00129459
-0.0111409
-4.415e-05
0.00252342
0.002659
-0.00189857
0.0157408
-0.000484311
0.00166076
-0.0199393
0.000959809
0.00118455
-0.00103176
-0.000126267
-0.000310224
0.000334262
0.000249487
0.000685886
0.00112881
0.000304441
0.000436634
-0.000971782
0.00081891
-0.000148257
-0.000744006
0.00129337
0.000364107
-6.97561e-05
-0.000769171
0.00175871
9.41796e-05
6.51818e-06
-0.000566168
0.00141328
-0.000186037
0.00049812
3.34115e-05
-0.00102238
0.00103517
0.000528284
0.000872078
-0.00113657
3.82385e-06
-7.5887e-05
-0.000751542
2.36813e-05
-0.000314656
0.000127344
-0.000275793
0.000842361
-0.000333796
0.00110104
-0.000184965
0.00124419
9.13647e-05
0.00145868
0.000387013
-0.000195169
0.00182023
0.000353759
-0.000333015
0.00213831
0.000385089
-0.000303774
0.00260581
0.000523759
-0.000138778
0.00248394
0.00040607
-0.000179923
-0.000104329
0.00262999
0.0002952
8.76297e-05
-0.00052872
0.00225048
9.01554e-05
0.000269633
1.97264e-05
0.00206592
0.000117454
-0.00012488
0.000192023
0.00186007
1.75263e-06
-3.94494e-05
0.000243532
0.00164248
-0.000239878
0.000191569
0.000266032
0.00106
0.000232158
0.000231002
0.000119287
0.000656779
0.000325683
-8.46114e-05
0.000162022
0.00146515
-0.0010243
-0.000783776
0.000999772
0.00163907
-0.00069064
0.000169593
0.000347267
0.00108292
-0.00044919
0.000724641
0.000280723
0.000487255
0.000409497
0.000194379
-8.37521e-06
0.00108494
0.000645774
-0.000471393
-0.000771952
0.000851669
-0.000641857
0.00069408
0.000181119
0.000344568
0.000468641
0.000146548
-0.000108296
0.000763062
-0.000449187
-0.000697165
0.000727901
0.000865886
-0.000615507
0.000317051
0.000195776
0.000344821
0.000515512
0.000102865
-9.74572e-05
0.000788945
0.000646859
-0.000419825
-0.000671008
0.000635051
-0.000557615
0.000611604
9.98121e-05
0.00106871
-0.000637885
0.000760029
-0.000555646
0.00069464
-0.000620908
0.000776183
0.000218696
0.00102968
-0.000737055
-0.000628432
0.00103046
0.000956147
-0.000645593
0.000333195
0.000386053
0.00116028
-0.000791725
0.0013642
-0.000776574
0.00102344
-0.000707129
0.000407957
0.000436214
0.00121095
-0.000861163
-0.000808975
0.00148274
0.00105006
-0.000765591
0.0004578
0.000468925
0.00121008
-0.000901692
-0.000786509
0.00152834
0.00111118
-0.000796552
0.000410483
0.000485162
0.00136552
-0.000999169
0.00145904
-0.000713824
0.000538033
0.00101515
0.000203002
-0.000390641
0.00073855
0.00120545
-0.000403189
-0.00100255
0.00121685
-0.00164655
-0.00086752
0.00203564
0.00118355
-0.00121646
0.000471825
0.000777897
0.00130599
-0.00142226
0.00209669
-0.000796526
0.000462631
0.00155194
7.84786e-05
-0.000787173
0.000146414
0.00189131
-0.000367545
-0.00120734
0.000765506
-0.00248876
-0.000766237
0.00263605
0.000567824
0.00147066
2.02932e-05
-0.00129346
-0.000714117
0.00291403
-0.000297032
-0.00133505
-0.000798995
-0.00264437
-0.000160565
0.00288955
-0.000329555
-0.00294402
-4.36795e-05
0.00251743
-0.000346501
0.00174545
-0.00170427
-2.42346e-05
0.00163149
-0.00176678
-0.000417735
0.000206177
0.00347426
0.00117362
-0.00127294
0.00367093
-0.00195506
0.000545752
0.00121253
0.00369708
0.000705979
-2.58031e-05
-0.000706595
0.00317312
-0.00103988
0.00144862
0.000114705
0.00381687
-0.000988233
0.000612658
-0.000268563
0.00598022
-0.00191393
-0.000536056
0.000286348
0.00912288
0.000498938
-0.00221344
-0.00142838
0.0123546
0.000130544
-0.0035127
0.00796006
-0.00903182
0.00690187
0.00652468
0.022124
-0.00644349
-0.00497648
-0.00274343
-0.0200405
-0.00609017
-0.0126892
-0.0246488
-0.00580636
-0.00824737
-0.012678
-0.00316422
-0.0063224
-0.00815657
-0.00170041
-0.00566222
-0.00554296
-0.00113994
-0.00437638
-0.00406731
-0.000860201
-0.00375057
-0.00386536
-0.000489344
-0.00294759
-0.00339779
-0.000829877
-0.000868217
-0.00170671
-0.000634421
0.00135513
-0.0015631
-0.00103859
0.000378287
-0.00114339
0.00034893
0.000673832
-0.00124357
-0.000365535
-0.000208264
0.00140547
-0.00142362
-0.00155742
0.0020283
-0.00152616
-0.000788653
-0.00120981
-0.000480829
0.000848102
-0.00143105
-0.000548435
-7.8706e-05
0.00153163
0.00140214
-0.000733738
-0.0013518
-0.00104533
0.00045934
0.00180426
-0.00106361
-0.000383568
0.000635691
-0.00109776
-0.000474467
0.00274036
0.00352299
-0.00170205
1.68184e-06
-0.00118704
0.00268804
-0.000416235
0.000737481
0.000512757
0.00146103
-0.00126002
-0.00206028
-0.00311466
-0.00167474
0.00265046
-0.000681497
0.00126609
-0.00233864
-0.00149063
-0.000528614
0.00112067
0.000122671
-0.00283427
-0.00130124
-0.000451078
0.000972091
0.00127553
-0.00216432
-0.00118305
-0.000376211
0.000866387
2.31771e-05
-0.00246473
-0.00104623
-0.000342788
0.000651143
0.00103798
-0.000959665
-0.000511546
-0.00105331
-0.007724
-0.000971949
-0.000595817
8.0378e-05
-0.000125523
0.00204371
-0.000377355
0.00242686
0.00214285
0.000722818
-9.37254e-05
-2.87821e-06
0.00122697
0.00130776
-0.00197794
0.000167178
-0.000595649
-0.000421611
0.00186802
-0.000491249
0.00236513
0.00201384
0.00173422
0.000162302
-0.000174531
-0.000868183
-0.00705283
-0.000645767
0.000344037
0.00198576
0.000218243
-0.0013531
-0.000215441
-0.00265885
0.00231917
-0.000482535
5.51087e-05
0.000275546
-0.00247191
-0.000156493
-0.000254208
0.00023419
-1.02536e-05
-0.00275921
-0.000275242
-4.18012e-05
0.000100043
0.000503815
-0.00252687
6.86802e-05
-0.000269154
3.53127e-05
-6.6879e-05
-0.00273927
-0.000123347
-1.9842e-05
-8.56752e-05
0.000440808
-0.00244314
0.000235874
-0.000471892
-0.000146643
8.69083e-05
-0.0026517
4.69519e-05
0.000207788
-0.000236462
0.000189903
-0.00238617
0.000302123
-0.000676243
-0.000202269
0.000311355
-0.00259321
7.25575e-06
0.000171287
-0.000191252
0.000219414
-0.00205457
0.000264601
-0.000944152
-0.000167132
0.000308574
-0.00212056
0.000148067
7.89201e-05
-0.000112888
-4.84954e-05
-0.00179172
0.000519964
-0.000781038
-0.000267925
0.000200685
-0.00163043
-0.000142755
0.000394167
-0.000161909
-0.000251258
-0.000605423
-0.00141527
0.000611155
-0.000186776
-3.3959e-05
0.000351976
-0.000874514
-8.36487e-05
0.000565426
-0.000564807
0.00059168
0.000540939
-0.000764399
-0.000248029
0.000232095
0.000297374
0.0023236
-0.000550929
-0.0014773
0.00176424
-0.00083598
-0.000726941
9.63112e-05
0.00171802
0.000861137
0.00150866
0.00164948
0.000485734
-0.000222616
-0.000194265
0.0010026
0.000875364
-0.000249927
2.14483e-05
0.000958179
0.000376701
-0.00016644
-0.000165825
0.000955852
-0.000105669
0.000147128
-3.91754e-05
0.000826494
-0.000189319
0.000210825
0.000107872
0.00082884
-4.53483e-05
2.23317e-05
2.06351e-05
0.00097425
9.64095e-05
-0.000105166
-0.000136603
0.00118608
6.48382e-05
-0.000105652
-0.000171002
0.00128126
-7.98914e-05
3.05317e-05
-4.57457e-05
0.00116888
-0.000235483
0.000179087
0.00016879
0.0009264
-0.000236174
0.000229364
0.000249332
0.000724604
-0.000134551
0.000147655
0.000188641
0.000694192
-5.90749e-06
-2.26601e-06
3.85636e-05
0.000778564
7.68952e-05
-0.000116449
-4.49161e-05
0.000898072
0.000121438
-0.000170203
-7.07868e-05
0.00100318
0.000108424
-0.000167105
-4.65037e-05
0.00106708
5.88147e-05
-0.000129076
6.30229e-06
0.000892088
0.000146632
-6.35179e-05
9.15953e-05
0.000997121
0.00170758
-0.000769146
-0.00104338
0.00137555
0.000199198
-0.000476245
-0.000101164
0.00134761
0.000176472
-0.000243129
9.45491e-05
0.00127068
0.000161216
-0.000222456
0.000138113
0.00116893
0.000173771
-0.000232951
0.00016084
0.00105377
0.000187043
-0.000251838
0.000179821
0.0007934
0.000232161
-0.000174085
0.0002019
0.00116006
0.00163828
-0.00092586
-0.00107911
0.00164642
-0.00107378
0.00045032
0.000137303
0.00162109
0.000185522
0.000395767
-0.00055621
0.00157881
0.000302425
-0.000607628
0.00034719
0.00121519
0.000408666
-0.000438501
0.000393051
0.00184775
-0.00193059
-0.0017236
0.0026632
-0.00317429
-4.07688e-05
-0.0032745
0.000471519
-0.000139234
0.000515136
0.000487061
0.00133942
-0.000634543
-0.000177024
0.00138231
0.000320482
-0.000467061
0.000103148
0.00117719
9.15387e-05
0.000496068
-0.00038274
-0.000721243
0.000805859
0.000508856
0.000583693
-0.000744195
0.000243542
-0.000129174
2.57532e-05
-0.00011517
0.000192288
-6.46204e-05
0.00095638
-0.000590011
0.00128111
0.000212092
-0.000530388
0.00161903
0.000264385
-0.000104257
0.00171493
-0.000204747
0.000264316
-0.000155649
0.00195615
-0.000444591
0.000366425
-0.000163289
0.00165534
-0.000434278
0.000796305
-6.123e-05
-0.0013675
0.00104538
0.000717148
0.00126026
-0.00145889
-7.10615e-05
-0.000272043
-0.00130172
-0.000227964
-0.000373862
-0.000146336
-0.00032497
0.000832606
-6.3327e-05
0.00104292
-8.44328e-05
0.00147899
-0.000121972
0.00167873
0.000510302
-0.000186337
0.00184023
0.000354017
-0.000109494
0.00191552
0.000214174
5.81298e-06
0.00191062
-3.93095e-05
0.000134512
0.00144745
0.000169115
0.00041149
0.00127239
3.27927e-05
0.000143981
0.000891935
-3.37776e-05
0.000174281
0.00188546
-0.00121916
-0.00109693
0.00132262
0.0020011
-0.00061599
0.00020389
0.000296633
0.00172698
-0.000289129
0.000118181
0.000445234
0.0011923
-0.000410572
0.000254714
0.000549165
0.000209427
-1.56222e-05
0.00112085
-0.000620718
-0.000859242
0.000908326
0.00120691
-0.000659233
0.000245183
0.000328233
0.0004383
0.00019152
-6.50647e-05
0.000897586
-0.000525295
-0.000780366
0.000846399
0.000986569
-0.000659153
0.000223158
0.000347186
0.000356982
0.000124176
-0.000110177
0.00078428
-0.000497601
-0.000722275
0.000792605
0.000921366
-0.000659672
0.000348991
0.000173711
0.000371943
0.00010385
-0.000112169
0.000849098
-0.000422165
-0.000692671
0.000400709
7.39627e-05
-0.000246648
0.000920394
-0.000453336
-0.000803179
0.000450803
9.78607e-05
-0.000273912
0.00100975
-0.000482354
-0.00086802
0.000483866
0.000116233
-0.000297454
0.00105293
-0.000500564
-0.000929333
0.000496848
0.000118445
-0.000327898
0.00104355
-0.000495748
-0.000952274
0.000447897
0.00012847
-0.000329273
0.000669185
-0.000378898
-0.00084117
0.00117922
-0.00142208
-0.00078713
0.00169923
0.000825228
0.000494595
0.000339104
-0.000479802
0.00111625
-0.000683104
-0.00125417
0.000423326
6.22319e-05
-0.00058583
0.000394732
-0.000386712
-0.00100656
0.000908506
-0.00187151
-0.000774242
0.00213206
0.000633584
0.00102817
0.000126354
-0.000879743
-0.000212353
-0.000453151
-0.00118953
0.000414775
-0.00248329
-0.000690211
0.00254654
0.000379702
0.00157209
-0.000198615
-0.00133859
-0.000760401
-0.000373053
-0.00113143
-0.000629162
-0.00260954
-0.000467566
-0.00220186
-0.000133445
-0.00138541
-0.000608865
-0.000208372
-0.000648767
0.000233348
-0.000344022
-0.000626816
0.000805088
-0.00145405
-0.000305617
0.00030499
-0.000194116
-0.000536846
0.00300785
-0.0016103
-0.000369055
-0.00122262
0.00260134
-0.000419846
0.000406916
0.00135279
0.00102128
0.000612757
-0.000386268
-0.000991607
-0.00165912
-6.2341e-05
0.00406547
-0.000754166
-0.000716307
-0.00261278
0.00152647
-0.000690069
0.00259422
-0.000625851
-0.00356252
0.00156746
0.00244846
-0.00309275
-0.000433361
0.00363102
0.00134772
0.00432481
0.000775803
-0.000152087
-0.0013174
0.00350605
0.00205472
-2.43022e-05
-0.00121209
0.00133369
0.0027744
0.00231457
-0.00291684
0.00270567
-0.00163504
0.000462206
-0.000199297
0.00584622
-0.00304366
-0.000458527
0.000361402
0.00800428
-0.00382311
0.00312445
-0.0014593
0.0140896
-0.00967942
0.0058803
-0.00228594
-0.00790329
0.0131192
-0.00380457
-0.00594798
-0.00841387
-0.00169795
-0.00561593
-0.00483627
-0.00115811
0.00447956
-0.00421197
-0.00539466
-0.000488944
-0.00483915
-0.000861659
-0.00456655
-0.00319644
-0.0011433
-0.00403816
-0.00401921
-0.000374465
-0.00397344
-0.0030984
8.60222e-05
-0.00194432
-0.000638841
0.0011522
-0.00254246
0.000963823
-0.00164998
-0.00154635
0.000288207
0.00320128
-0.00178436
-0.00109218
-0.00296522
-0.000287628
-0.00078494
-0.00178399
-0.000590929
-0.00101025
-0.00164627
0.000308565
0.00164799
-0.00179186
-0.000584361
-0.000282034
-0.000293652
-0.00034044
0.00142044
-0.00132206
-0.000674338
0.000282306
-0.000729009
0.000360278
0.00195143
-0.00199177
-0.000528184
-0.000160414
-0.000636337
-0.000369511
0.00124963
-0.000190163
-0.00158366
-0.000112313
0.000787145
-0.000136996
5.09742e-05
0.00131437
-0.000205737
-0.00105529
0.00109831
-0.000369549
-0.000478054
0.000534702
-0.000310808
-0.000223676
9.51416e-05
-0.000413574
-0.000849308
0.00221783
-0.000552452
-0.000379533
-0.00119092
0.00435234
-0.000522158
-0.00161161
0.00382339
-0.000505476
0.000619208
0.0020924
-0.000562429
0.000578621
0.00171424
-0.000893456
-0.00160221
-0.0009911
-0.00421646
0.000590355
-0.00264051
-0.00161945
-0.00367717
-0.00149894
-0.00218778
0.000601891
0.00254556
-0.00296207
-0.000384531
-0.00081346
-0.00187179
0.00235476
-0.00323893
0.000559744
-0.0016995
-0.000623488
0.00203947
-0.00243549
-0.0015996
-0.000393623
-0.000725106
0.00191472
-0.00283881
-0.0014126
-0.000265793
0.000406276
-0.00215716
-0.00125811
-0.000155397
-0.000758792
-0.00263223
-0.00108789
-0.000127775
0.000389019
-0.00205992
-0.00100064
-9.55701e-05
-0.000659095
-0.00255468
-0.000848476
-0.000128455
0.000425032
-0.00170257
-0.000419915
-0.000780904
-0.000162339
0.000409308
-0.000633936
-0.000544856
0.00014409
-0.00075289
-0.00173402
-0.00963425
-0.00169107
-0.000886921
0.00980364
0.00101227
0.00427326
-9.07878e-05
0.00208207
-0.00115656
-0.000219158
0.00197199
-0.000705193
-0.00236888
0.00220614
-0.000431008
9.03694e-07
0.000373604
6.98629e-05
-0.000278485
0.000321279
7.98779e-05
7.5733e-07
-0.0029496
7.61033e-05
0.00286257
-0.00148196
0.00169498
-2.49557e-05
-0.00125664
-2.30524e-05
-8.0978e-05
-0.0010705
-3.17543e-05
-7.76407e-05
-0.00100051
-3.57327e-05
-4.03528e-05
-0.00118013
-2.31386e-05
6.8087e-05
-0.00160447
-5.27669e-06
0.000193357
-0.00198659
-5.76569e-07
0.000147267
-0.0019979
4.96492e-07
-6.8975e-05
-0.00168056
6.73729e-06
-0.000259053
-0.00139182
1.66152e-05
-0.000208816
-0.00134718
2.89014e-05
-0.000118759
-0.00153033
3.22958e-05
-3.84714e-05
-0.00146118
2.04543e-05
-0.000195304
-0.00103087
-2.89568e-06
-5.08513e-05
-0.000803663
3.0429e-06
0.000644929
-0.000523201
6.40089e-05
0.000140506
-0.000190642
0.000102765
-0.000985461
0.00103568
9.62416e-05
-0.000566503
-0.000755315
-0.00104062
0.00182353
-0.00122359
-0.000717755
0.000167923
-0.00132605
-0.000668223
0.00163333
-0.000499916
-0.00118235
-0.00172355
-0.000572473
0.00190842
-0.000280844
-0.000390287
-0.000124921
-0.000330511
-0.000876992
0.000962729
0.000251348
-0.0011118
-0.000491632
0.00101409
0.00124242
-0.000705583
-0.000588098
0.000997437
0.000729949
-0.000224088
-0.000489221
0.00112133
-0.000402625
0.000468247
-0.000189511
0.00123563
-0.000795113
0.000672715
8.07022e-06
0.00131369
-0.000527988
0.00051437
-6.44536e-05
0.00127946
-6.58881e-05
0.000239336
-0.000139234
0.00126228
6.77869e-05
0.000126434
-0.000177024
0.00130761
-3.56483e-05
0.000121144
-0.000130833
0.00140744
-0.000186295
0.000139444
-5.29574e-05
0.00153553
-0.000189969
9.06143e-05
-2.87547e-05
0.00162777
-1.54956e-05
-3.04323e-05
-4.63398e-05
0.00167398
0.000212266
-0.000171422
-8.71343e-05
0.00165557
0.000407321
-0.000292629
-9.63507e-05
0.00160148
0.000525335
-0.000374271
-9.70724e-05
0.00152151
0.000563759
-0.000414531
-6.93159e-05
0.00143481
0.000547787
-0.000431042
-3.0125e-05
0.00132931
0.000550203
-0.000446779
2.0433e-06
0.00118844
0.000615027
-0.000473149
-1.02073e-06
0.0011076
0.000589134
-0.000512227
3.84999e-06
0.0010677
0.000594161
-0.000566522
1.21777e-05
0.00103282
0.000643021
-0.00062873
2.04836e-05
0.000964786
0.000694164
-0.000670951
4.47156e-05
0.00092671
0.000621822
-0.000694764
0.000110969
0.000360154
-0.00049997
-7.91509e-06
0.000988639
-0.00134392
-0.000900354
0.00161588
0.00173275
-0.00238305
0.00165663
-1.76246e-05
0.00181725
-0.00228775
0.00188345
0.000319688
0.00190331
-0.00253485
0.00201113
0.000437602
0.00152875
-0.00288095
8.10809e-05
0.00133295
-0.00307658
-2.23441e-06
0.000498014
-0.0023965
-6.47167e-05
-0.0030224
-0.00114294
-0.00649017
0.00406039
0.00469898
-0.00453539
-0.0114263
-0.00477899
-0.00626615
0.00325695
-0.00436329
-0.00261579
-0.00621472
0.004834
0.000795589
-0.00456874
-0.00133945
-0.00440667
-0.00114931
-0.00424887
0.00458853
-0.000996208
-0.00590774
-0.000163863
-0.00334236
-0.000241968
0.00524503
-0.00354418
-0.00316442
-0.00139426
0.00133673
0.000861861
-0.00528371
-0.00120319
0.000263712
0.00168323
0.000991313
-0.0028804
-0.00613622
0.00595072
0.00588194
-0.00809532
0.00420939
-0.00136707
-0.00121153
0.00372356
0.00104066
-0.000568579
-0.00071061
0.000916592
0.000433979
0.000213963
-0.000524911
-0.000664463
0.000538057
0.000478073
0.000564224
0.000608008
-0.000174978
0.000543766
0.00087093
-0.000591395
0.000927156
0.000867907
-0.000758198
-0.00049358
0.00108778
6.81711e-05
0.000141535
-0.000370496
-0.000699041
0.000677372
0.000498202
0.000611138
-0.000528373
3.85247e-05
-0.00014165
-0.000174321
0.000383797
0.000129615
0.000328469
0.000228726
0.000314168
-0.000104783
0.000350975
-0.000120027
0.00116275
-0.000276636
0.00145108
-0.000230334
0.000300811
-0.000359102
0.00164799
-0.000416833
0.000289714
-6.99247e-05
0.0017588
-0.000440123
0.000336131
-6.911e-06
0.00137583
-0.000414207
0.00067846
0.0001187
-0.00115349
0.000901804
0.000590136
0.00103722
-0.00124352
-8.47029e-05
-0.000239832
-0.00118028
-0.0002181
-0.000285395
-0.00109406
-0.000193887
-0.000309256
-0.00010955
-0.000409055
0.000816257
-0.000204556
0.000953631
-6.6708e-05
0.00102533
-2.54923e-05
0.0013703
-6.31979e-05
0.00178923
-0.000123729
0.000501051
0.0019404
0.000339744
-0.000317799
-0.000173337
0.00211389
0.000277124
-0.000185209
-0.000265482
0.00212599
0.000240754
-0.000266054
1.32339e-05
0.00216791
0.000157315
-0.000416089
0.000217033
0.00182905
-0.000130433
0.000368535
0.0001009
0.00135735
-6.82532e-05
0.000237707
0.000302253
0.00118106
2.62655e-05
-2.41182e-05
0.000174106
0.000782885
0.000299457
-7.05464e-05
0.000169174
0.00162366
-0.00111878
-0.000962859
0.00124092
0.00162879
-0.000595748
0.000300205
0.000290555
0.00136151
-0.00039302
0.000231282
0.000429175
0.00050632
0.000680535
0.000215362
-4.08892e-05
0.000960954
-0.000548719
-0.000829513
0.000923599
0.00102225
-0.000702878
0.000272264
0.000369541
0.000343916
0.000685665
0.000145392
-0.000152995
0.000729649
-0.000464619
-0.000759997
0.000838825
0.000894319
-0.000721829
0.000129149
0.000428183
0.000314496
0.000679091
6.09529e-05
-0.000160464
0.000718021
-0.000504466
-0.000728048
0.000828992
0.00087117
-0.000655875
0.000112925
0.000389928
0.000350715
0.000555245
8.08273e-05
-0.000115767
0.000740048
0.000645972
-0.000413114
-0.000621999
0.00036557
0.000588849
3.86519e-05
-0.000253222
0.000795002
0.000724427
-0.000432125
-0.000721515
0.000387946
0.00064832
4.50931e-05
-0.000286514
0.000826584
0.000782608
-0.00045118
-0.000769833
0.000391075
0.000700675
4.78879e-05
-0.000313137
0.000796905
0.000818987
-0.000439358
-0.000785212
0.000340865
0.000733673
4.21406e-05
-0.000319771
0.000487658
0.000894686
-0.00034031
-0.000700903
0.000961048
-0.00123124
-0.000700131
0.00145804
0.000697794
0.000424711
0.000251401
-0.000413021
0.000888987
0.00143856
-0.000611686
-0.00101781
0.000327709
0.00103027
-1.06626e-05
-0.000458322
0.000321781
0.00114289
-0.000357934
-0.000778806
0.000748277
-0.00140929
-0.000706871
0.00168968
0.000549991
9.09183e-05
-0.000615834
0.000723019
4.98266e-05
0.00185017
-0.000441809
-0.000907984
0.000503246
-0.00168133
-0.00070043
0.00192845
0.000377682
0.00106777
-0.000121787
-0.000820556
-0.000681054
0.00215023
-0.000307128
-0.00078433
-0.000926671
-0.00127616
-0.000207336
0.00172911
-0.000240792
-0.00175884
-0.000249231
0.00132204
-0.000132638
0.00116979
-0.000414223
-0.000864036
-0.0004949
0.000839058
-0.000111711
-0.000365428
-0.000287445
7.64274e-05