/*--------------------------------*- C++ -*----------------------------------*\
  =========                 |
  \\      /  F ield         | OpenFOAM: The Open Source CFD Toolbox
   \\    /   O peration     | Website:  https://openfoam.org
    \\  /    A nd           | Version:  7
     \\/     M anipulation  |
\*---------------------------------------------------------------------------*/
FoamFile
{
    version     2.0;
    format      ascii;
    class       volVectorField;
    location    "18.9";
    object      U;
}
// * * * * * * * * * * * * * * * * * * * * * * * * * * * * * * * * * * * * * //

dimensions      [0 1 -1 0 0 0 0];

internalField   nonuniform List<vector> 
15284
(
(-0.0506652 -0.0137172 -0.182487)
(-0.0459381 -0.00894077 -0.188318)
(-0.0445694 -0.00852492 -0.194477)
(-0.0412825 0.00195166 -0.209304)
(-0.0397465 0.00567718 -0.209321)
(-0.03738 0.0115897 -0.22381)
(-0.0353014 0.0123508 -0.215937)
(-0.0305466 0.0216165 -0.224777)
(-0.0266579 0.0365868 -0.204397)
(-0.0238287 0.0662706 -0.215837)
(-0.0233663 0.114868 -0.173811)
(-0.0169335 0.117489 -0.134696)
(-0.0213462 0.107935 -0.102877)
(-0.00950024 0.0891583 -0.09247)
(-0.00276802 0.0409715 -0.117428)
(-0.0360618 0.148817 -0.167802)
(0.00749162 0.0247359 -0.101577)
(0.0040668 0.0263361 -0.12614)
(0.000522335 0.0141019 -0.1337)
(0.0139123 0.0141393 -0.122329)
(-0.00920182 0.00836964 -0.124889)
(0.00133596 0.0140202 -0.103996)
(-0.0321768 -0.0115127 -0.0815644)
(-0.0273916 -0.00112615 -0.108716)
(-0.0393364 0.0209194 -0.167538)
(-0.051536 -0.00354549 -0.0943983)
(-0.0153373 0.000518883 -0.1302)
(-0.00169681 0.0104593 -0.0294097)
(0.0482479 0.0125483 -0.0746259)
(0.0982003 0.0389255 -0.180667)
(0.0277326 -0.0143951 -0.0583598)
(0.0550861 0.00984139 -0.0920313)
(0.0343741 0.0327207 -0.115157)
(0.0381153 0.0226768 -0.13222)
(0.017698 0.0219747 -0.116663)
(0.0184803 0.0236675 -0.135358)
(-0.0540363 -0.00877452 -0.184212)
(-0.0456819 -0.00465773 -0.190167)
(-0.0414186 -0.00585162 -0.190758)
(-0.0351041 0.00403555 -0.207049)
(-0.034475 0.00631352 -0.203045)
(-0.031019 0.0119323 -0.219806)
(-0.0308392 0.0112806 -0.210257)
(-0.0263768 0.0191109 -0.222896)
(-0.0250437 0.0320058 -0.20194)
(-0.0227035 0.0614409 -0.214262)
(-0.022682 0.111974 -0.173476)
(-0.0250993 0.114874 -0.139447)
(-0.0358402 0.098343 -0.104893)
(-0.0287995 0.0731721 -0.0879114)
(-0.0194856 0.0199053 -0.104189)
(-0.0394162 0.130267 -0.157765)
(-0.128659 0.0708155 -0.0603793)
(-0.0177503 0.0324208 -0.0977593)
(-0.103929 0.0456158 -0.100405)
(-0.000519724 0.0297052 -0.122952)
(0.022252 0.0267226 -0.137717)
(0.0135859 0.0177655 -0.129192)
(-0.000791463 0.0130975 -0.140103)
(0.0259922 0.0188952 -0.149376)
(0.0138949 0.0217402 -0.152405)
(0.0127858 0.0132631 -0.125377)
(0.0110518 0.0112021 -0.141793)
(0.0236033 0.0080426 -0.147451)
(0.0275774 0.0074822 -0.160948)
(0.0285212 0.00539271 -0.176428)
(0.0235315 0.000516219 -0.187276)
(0.0145993 -0.00505111 -0.191831)
(0.0035441 -0.0102097 -0.190927)
(-0.00745952 -0.0152949 -0.187025)
(-0.0142137 -0.0208679 -0.180759)
(-0.0222386 -0.0305998 -0.177432)
(-0.0305524 -0.0344969 -0.166518)
(-0.0390613 -0.033589 -0.152637)
(-0.0452893 -0.0320473 -0.138468)
(-0.0475659 -0.0335925 -0.129673)
(-0.0519882 -0.0379028 -0.11725)
(-0.0548972 -0.0362677 -0.108456)
(-0.0576759 -0.0341022 -0.101018)
(-0.0592224 -0.0360237 -0.0941868)
(-0.0577317 -0.0349925 -0.0896123)
(-0.0564596 -0.0340051 -0.0854108)
(-0.0598631 -0.0367818 -0.0847264)
(-0.0603084 -0.0381918 -0.0839076)
(-0.062297 -0.0393863 -0.0824607)
(-0.0659741 -0.0446756 -0.0831356)
(-0.06881 -0.0474729 -0.0840511)
(-0.0737961 -0.051413 -0.0851967)
(-0.0763986 -0.0539824 -0.0863691)
(-0.082621 -0.0585595 -0.0882327)
(-0.0858433 -0.0619412 -0.089679)
(-0.0925205 -0.066045 -0.0913367)
(-0.0965893 -0.0695438 -0.092818)
(-0.104323 -0.0734967 -0.0947077)
(-0.109607 -0.0776613 -0.0962728)
(-0.118639 -0.0813294 -0.0977559)
(-0.126102 -0.0857854 -0.0993681)
(-0.13638 -0.0880159 -0.100956)
(-0.145683 -0.0953988 -0.102368)
(-0.157228 -0.0952687 -0.104553)
(-0.172984 -0.0911784 -0.109007)
(-0.187677 -0.0937034 -0.110743)
(-0.206699 -0.0881932 -0.11509)
(-0.226447 -0.0859731 -0.113088)
(-0.248321 -0.0681993 -0.115326)
(-0.275049 -0.0311777 -0.108849)
(-0.296765 -0.00834078 -0.0964569)
(-0.299578 0.0340088 -0.0924259)
(-0.311033 0.0598501 -0.0723302)
(-0.306226 0.0797971 -0.0947586)
(-0.304804 0.0922286 -0.0296054)
(-0.382726 0.0660819 0.00176383)
(-0.436668 0.0288055 0.0316217)
(-0.535657 -0.053077 0.0680455)
(-0.642735 -0.14359 -0.00388481)
(-0.700549 -0.358426 0.00339416)
(-0.707097 -0.362952 -0.00278481)
(-0.720065 -0.409248 -0.08113)
(-0.809785 -0.524955 -0.0581698)
(-0.0700476 0.00977643 -0.184705)
(-0.0599818 0.00849787 -0.185576)
(-0.054146 0.00372595 -0.180773)
(-0.0460282 8.75099e-05 -0.187631)
(-0.0423092 0.00235883 -0.188102)
(-0.0361181 -0.00655944 -0.205555)
(-0.0355386 -0.00814303 -0.201883)
(-0.0319373 -0.0133096 -0.219762)
(-0.0316875 -0.0121868 -0.210435)
(-0.0273426 -0.0197291 -0.223729)
(-0.0261787 -0.0321237 -0.202517)
(-0.0239981 -0.0609135 -0.214776)
(-0.0239055 -0.11097 -0.173737)
(-0.0261076 -0.113688 -0.139505)
(-0.035966 -0.0975089 -0.104908)
(-0.0279387 -0.0725979 -0.0880984)
(-0.0180942 -0.0190891 -0.103837)
(-0.038619 -0.128828 -0.158928)
(-0.0916042 0.0707677 -0.0318298)
(-0.0456368 0.01378 -0.0656374)
(-0.0244245 0.0105294 -0.0503457)
(-0.056143 0.013414 -0.140752)
(-0.0582574 0.0418198 -0.0503931)
(0.00859946 0.0373905 -0.0899456)
(0.0186549 0.0299763 -0.134224)
(0.022173 0.0148921 -0.131302)
(0.0313827 0.0131694 -0.132538)
(0.0317373 0.0201648 -0.148329)
(0.0319792 0.0190008 -0.168158)
(0.0327975 0.0165424 -0.187352)
(0.0363053 0.0149587 -0.207162)
(0.0366103 0.0204528 -0.213484)
(0.0332728 0.0297917 -0.190773)
(0.0323679 0.0344255 -0.175293)
(0.0189457 0.014508 -0.143363)
(0.024255 0.0118931 -0.16064)
(0.024896 0.00959343 -0.1851)
(0.0267121 0.00501855 -0.201696)
(0.0217413 -0.000923988 -0.213439)
(0.0161531 -0.00815643 -0.216524)
(0.00712211 -0.0144819 -0.213361)
(-0.00071742 -0.020486 -0.207268)
(-0.0124042 -0.0278454 -0.197784)
(-0.0231796 -0.0299745 -0.185483)
(-0.0328291 -0.0310905 -0.169253)
(-0.0409831 -0.0292354 -0.152007)
(-0.0464528 -0.0289592 -0.139182)
(-0.0520355 -0.0339505 -0.126723)
(-0.055612 -0.0333327 -0.117141)
(-0.0570626 -0.0314675 -0.106293)
(-0.0575753 -0.0328864 -0.0997351)
(-0.0581839 -0.0321916 -0.0879066)
(-0.0561579 -0.0292333 -0.0818361)
(-0.0549408 -0.0268904 -0.0779138)
(-0.0582945 -0.0303502 -0.0782434)
(-0.0588865 -0.031543 -0.0777793)
(-0.0611262 -0.0347397 -0.0779979)
(-0.0652098 -0.0381299 -0.0790879)
(-0.0684785 -0.0422396 -0.0804961)
(-0.0724252 -0.0447572 -0.0822226)
(-0.0755381 -0.0476434 -0.0834649)
(-0.081019 -0.0519464 -0.0850341)
(-0.0848208 -0.0553419 -0.0863977)
(-0.0906776 -0.0586214 -0.0878332)
(-0.0952944 -0.0621473 -0.0892006)
(-0.102091 -0.0648675 -0.0906466)
(-0.107665 -0.0687259 -0.0920244)
(-0.115705 -0.0703227 -0.0927506)
(-0.122731 -0.075659 -0.0940245)
(-0.13075 -0.0768077 -0.0960328)
(-0.14205 -0.0744901 -0.098501)
(-0.15227 -0.0767616 -0.0984477)
(-0.165094 -0.0741043 -0.101347)
(-0.177374 -0.0763393 -0.102034)
(-0.193477 -0.0714703 -0.106587)
(-0.213294 -0.0533812 -0.105994)
(-0.234356 -0.0420154 -0.100281)
(-0.245782 -0.0158807 -0.101902)
(-0.251584 0.0118356 -0.0881766)
(-0.260644 0.0503681 -0.0894702)
(-0.254382 0.0951791 -0.0774045)
(-0.253366 0.113798 -0.0287292)
(-0.267527 0.106988 -0.00486941)
(-0.314376 0.0882228 -0.00356555)
(-0.385559 0.0481261 -0.00498598)
(-0.446662 -0.00621357 -0.00501554)
(-0.560436 -0.0730348 0.00489788)
(-0.594187 -0.127497 -0.0374252)
(-0.736951 -0.275085 -0.101805)
(-0.835559 -0.40113 -0.156691)
(-0.903297 -0.502833 -0.192638)
(-1.31686 -0.680726 -0.544547)
(-0.112516 -0.0832356 -0.223713)
(-0.107569 -0.0857805 -0.225507)
(-0.0605642 -0.128331 -0.202857)
(-0.0506837 -0.113903 -0.200927)
(-0.105481 0.0106249 -0.166548)
(-0.0883226 -0.00414637 -0.143593)
(-0.0761977 -0.0143874 -0.126547)
(-0.0628225 -0.0140547 -0.114342)
(-0.0519621 -0.0136418 -0.108094)
(-0.0376469 -0.00130145 -0.122676)
(-0.0241117 0.0285297 -0.115742)
(-0.0160515 0.0500581 -0.137165)
(-0.00584624 0.167388 -0.109796)
(-0.0508981 0.0147107 -0.067467)
(-0.0564071 -0.0538508 -0.175576)
(0.0493528 0.437276 -0.222687)
(-0.0811737 0.0204548 -0.0779133)
(-0.0502798 -0.00447073 -0.0722852)
(-0.0633349 0.0710417 -0.109398)
(-0.101125 0.0959957 -0.0110154)
(-0.0291105 0.0402522 -0.0490004)
(-0.000862222 0.0321656 -0.0823773)
(0.00715199 0.030762 -0.117612)
(0.0180217 0.00777167 -0.138596)
(0.0334498 -0.00157398 -0.130744)
(0.0267854 0.00289582 -0.123111)
(0.0232412 0.0310609 -0.115092)
(-0.00370051 0.0419732 -0.0628342)
(-0.0100656 0.0419818 -0.0990596)
(0.0124466 0.0237366 -0.155862)
(0.0346323 -0.00282593 -0.12605)
(0.0396546 0.00203934 -0.12202)
(0.0463428 0.0105798 -0.148491)
(0.0422883 0.0103671 -0.170982)
(0.0357624 0.00730294 -0.189324)
(0.0280643 0.000776149 -0.195776)
(0.0216211 -0.00597533 -0.198441)
(0.00923311 -0.0086598 -0.190696)
(-0.00238878 -0.0105639 -0.182012)
(-0.0145427 -0.0124384 -0.174739)
(-0.0262543 -0.014162 -0.166309)
(-0.0340047 -0.0183825 -0.156385)
(-0.0409043 -0.0210718 -0.146816)
(-0.0495527 -0.0272638 -0.140469)
(-0.0536048 -0.0256821 -0.129278)
(-0.055132 -0.0243112 -0.118156)
(-0.0556462 -0.0253009 -0.107976)
(-0.0577908 -0.0280067 -0.0942261)
(-0.0575348 -0.0250653 -0.0836576)
(-0.0573727 -0.019907 -0.0726581)
(-0.0607109 -0.0214549 -0.0735365)
(-0.0589679 -0.0200513 -0.0708008)
(-0.0596777 -0.0195692 -0.0681041)
(-0.06252 -0.0233309 -0.0715457)
(-0.0641422 -0.0240353 -0.0723728)
(-0.0689192 -0.0288867 -0.0759489)
(-0.071575 -0.0325819 -0.0773034)
(-0.0759438 -0.0350942 -0.0794573)
(-0.0781686 -0.0385465 -0.0803063)
(-0.0829921 -0.0405306 -0.0819912)
(-0.0866026 -0.044015 -0.0826545)
(-0.0920942 -0.0450012 -0.0840413)
(-0.0967321 -0.0482052 -0.0846997)
(-0.102389 -0.0486843 -0.0860037)
(-0.107637 -0.0509975 -0.0860837)
(-0.114776 -0.0506583 -0.0867999)
(-0.12065 -0.0533984 -0.0865065)
(-0.127903 -0.0517347 -0.0879549)
(-0.137208 -0.0473885 -0.0897456)
(-0.146083 -0.0463974 -0.0891376)
(-0.154704 -0.0415887 -0.0908854)
(-0.164509 -0.0401638 -0.0874093)
(-0.17943 -0.0276816 -0.0904957)
(-0.190208 -0.00463593 -0.0911848)
(-0.205131 0.00875183 -0.0799222)
(-0.19705 0.0365933 -0.082345)
(-0.183618 0.0761712 -0.069053)
(-0.159249 0.103608 -0.0582475)
(-0.148872 0.140891 -0.0441774)
(-0.124894 0.112145 -0.0333999)
(-0.158945 0.117415 -0.0443542)
(-0.191263 0.121994 -0.024005)
(-0.250576 0.107422 -0.00977545)
(-0.315634 0.0696646 0.000992045)
(-0.394732 0.0117367 -0.0100665)
(-0.482835 -0.0542692 -0.0604688)
(-0.571134 -0.126179 -0.0922909)
(-0.731298 -0.219483 -0.144185)
(-0.755053 -0.26797 -0.233209)
(-0.881559 -0.323909 -0.413892)
(-0.955717 -0.257018 -0.638474)
(-0.839303 -0.114932 -0.631317)
(-0.632314 -0.0569061 -0.602878)
(-0.528824 -0.0020014 -0.545293)
(-0.435891 0.0191447 -0.513355)
(-0.383316 0.0460479 -0.486856)
(-0.321874 0.0819816 -0.409929)
(-0.269659 0.0932376 -0.34587)
(-0.0940088 -0.0719168 -0.217152)
(-0.0657069 -0.0802734 -0.208697)
(-0.0770593 -0.0917189 -0.211325)
(-0.0556767 -0.0831877 -0.196624)
(-0.046525 -0.0812812 -0.190286)
(-0.0404712 -0.088691 -0.187987)
(-0.0396749 -0.107656 -0.189872)
(-0.000427563 -0.0858919 -0.172508)
(-0.000926191 -0.078825 -0.169416)
(-0.0199702 -0.0957108 -0.177086)
(-0.00617208 -0.0938722 -0.160991)
(-0.0061376 -0.119879 -0.154503)
(0.0049174 -0.140085 -0.167235)
(0.00304785 -0.151738 -0.230906)
(-0.0431757 -0.162839 -0.255496)
(-0.0883778 -0.0248429 -0.164177)
(-0.0799509 -0.0216 -0.156654)
(-0.0705477 -0.022389 -0.149665)
(-0.0640106 -0.0211542 -0.147456)
(-0.052712 -0.0231014 -0.142444)
(-0.0424177 -0.0248916 -0.1398)
(-0.0405982 -0.0126442 -0.126287)
(-0.0420441 -0.00909009 -0.127252)
(-0.0193798 0.000369054 -0.162106)
(-0.0182364 -0.00348649 -0.165109)
(-0.0102657 -0.00567116 -0.170125)
(-0.00740352 -0.00680884 -0.169458)
(-0.000478076 -0.00431996 -0.172414)
(0.00622988 0.00549338 -0.163911)
(0.0152604 0.0104966 -0.16678)
(0.0165865 0.0234575 -0.15752)
(0.0129186 0.00941071 -0.168173)
(0.0185084 0.0335947 -0.146115)
(0.016596 0.0102745 -0.132085)
(0.0329157 0.0205631 -0.126918)
(0.015176 0.0372592 -0.115164)
(-0.0797447 -0.0284743 -0.0829946)
(-0.0668785 0.00939296 0.00697712)
(0.0309075 0.0279832 0.035467)
(0.0622104 -0.0562258 -0.157448)
(0.0784262 0.0623019 -0.276265)
(0.0317677 0.0309688 -0.284221)
(-0.0152964 0.0463363 -0.322752)
(-0.0282516 0.0576771 -0.183783)
(-0.00852358 0.0223158 -0.136224)
(0.00977828 -0.0138035 -0.156513)
(0.00649713 -0.0247902 -0.131856)
(-0.000527157 -0.0102419 -0.118079)
(0.00225569 0.0102435 -0.134014)
(0.00466312 0.0103199 -0.165146)
(0.00632139 -0.00380615 -0.194408)
(0.00469891 -0.0225284 -0.193573)
(0.00390666 -0.0271626 -0.161032)
(0.00312725 -0.0164232 -0.119494)
(0.00240566 0.00134746 -0.102112)
(-0.000763987 0.0114461 -0.110982)
(-0.00428358 0.0148324 -0.1288)
(-0.00564433 0.0125324 -0.148999)
(-0.00531323 0.00790184 -0.167352)
(-0.00761816 0.00241091 -0.183982)
(-0.0175933 0.00588266 -0.182687)
(-0.0263546 0.00410605 -0.179108)
(-0.0279879 -0.000827567 -0.176543)
(-0.0299036 -0.00358193 -0.170162)
(-0.0336693 -0.00266729 -0.161848)
(-0.0387941 0.000954574 -0.152919)
(-0.0431468 0.00206976 -0.153567)
(-0.0526553 0.0081203 -0.154355)
(-0.0687525 0.00806605 -0.15135)
(-0.0772195 -0.00344147 -0.16958)
(-0.082354 -0.0143325 -0.185386)
(-0.103614 -0.025749 -0.225847)
(-0.142938 0.0127754 -0.231)
(-0.217508 0.0232325 -0.206067)
(-0.283288 0.0344345 -0.215456)
(-0.0847511 0.0026513 -0.0411486)
(-0.0740881 0.0342026 -0.114457)
(-0.0164066 0.0218347 -0.109739)
(0.0330583 0.0223447 -0.119648)
(0.029785 0.0229471 -0.104496)
(0.00345748 0.0328403 -0.0958626)
(0.0046587 0.0183069 -0.0802589)
(0.000861112 0.00789049 0.0125674)
(0.0200581 0.0469126 -0.0746558)
(0.01984 0.0374929 -0.115235)
(0.0262533 0.0173217 -0.130893)
(0.032078 0.00869103 -0.131636)
(0.0403647 0.0044267 -0.141038)
(0.0378795 0.00472017 -0.161038)
(0.0449568 0.00627456 -0.168347)
(0.0468344 0.00445034 -0.165177)
(0.048234 0.0056963 -0.152091)
(0.0437361 0.00810027 -0.145786)
(0.0332056 -0.000723024 -0.112043)
(0.0362738 0.00304646 -0.131749)
(0.0379174 0.000430698 -0.144635)
(0.0385586 0.000462886 -0.160355)
(0.0319956 -0.0016729 -0.173668)
(0.0233129 -0.00473278 -0.183857)
(0.0102234 -0.00692063 -0.190624)
(0.000516673 -0.01081 -0.190254)
(-0.011082 -0.0149922 -0.186652)
(-0.0209379 -0.0183857 -0.17836)
(-0.0332074 -0.0252939 -0.17419)
(-0.0418899 -0.0260973 -0.161132)
(-0.0490687 -0.0236983 -0.144821)
(-0.0511693 -0.0211907 -0.129789)
(-0.0525084 -0.0220792 -0.118832)
(-0.0581988 -0.0259318 -0.110419)
(-0.058872 -0.0243938 -0.101856)
(-0.0572447 -0.0236756 -0.0906724)
(-0.0586491 -0.0232122 -0.0837437)
(-0.0590279 -0.0202376 -0.0782299)
(-0.058986 -0.0184114 -0.0718156)
(-0.060646 -0.0194566 -0.0726771)
(-0.061598 -0.0194078 -0.0717384)
(-0.0637571 -0.0206727 -0.0705331)
(-0.0669031 -0.0243585 -0.0732235)
(-0.0699193 -0.0278047 -0.0744203)
(-0.0737909 -0.0294023 -0.0764544)
(-0.0773213 -0.0332641 -0.0773711)
(-0.0806879 -0.0342673 -0.0784793)
(-0.084579 -0.0381712 -0.0793199)
(-0.0890541 -0.0380168 -0.0804306)
(-0.0936172 -0.0418571 -0.081244)
(-0.0981411 -0.0408558 -0.0819605)
(-0.103208 -0.0443428 -0.0821323)
(-0.108442 -0.0439337 -0.0828194)
(-0.11438 -0.0404558 -0.0840926)
(-0.122375 -0.0427232 -0.0830833)
(-0.127672 -0.0386785 -0.0852008)
(-0.134698 -0.0376092 -0.0833458)
(-0.142434 -0.0338692 -0.08496)
(-0.152403 -0.022721 -0.0852417)
(-0.164584 -0.0168035 -0.0813722)
(-0.168521 -0.00564266 -0.0866297)
(-0.175775 0.0187916 -0.082924)
(-0.179835 0.0381072 -0.0722474)
(-0.158605 0.0595477 -0.0683141)
(-0.130676 0.0915891 -0.0498869)
(-0.100133 0.12101 -0.0282742)
(-0.0894046 0.113913 -0.0405733)
(-0.0735227 0.10561 -0.0407861)
(-0.0628678 0.0953554 -0.0488327)
(-0.0954287 0.099596 -0.0343978)
(-0.119023 0.0973256 -0.0499654)
(-0.149411 0.107336 -0.0428498)
(-0.179437 0.103668 -0.0370319)
(-0.223459 0.0867395 -0.0288081)
(-0.197858 0.106614 -0.0339563)
(-0.207111 0.0799198 -0.0512909)
(-0.220076 0.0532391 -0.0671725)
(-0.208694 0.086727 -0.0495989)
(-0.237355 0.0654408 -0.064105)
(-0.271868 0.0414587 -0.0714902)
(-0.32162 0.00720968 -0.0822381)
(-0.332938 -0.0127696 -0.0987888)
(-0.349655 -0.0542923 -0.145748)
(-0.377104 -0.0744121 -0.230433)
(-0.417623 -0.0744106 -0.324273)
(-0.441622 -0.0507217 -0.441818)
(-0.505696 -0.0447364 -0.509284)
(-0.421829 0.0260913 -0.439451)
(-0.35556 0.0423343 -0.450099)
(-0.306629 0.120043 -0.436951)
(-0.380078 0.063156 -0.490668)
(-0.314929 0.11387 -0.425964)
(-0.258299 0.133163 -0.339277)
(-0.198038 0.12624 -0.296792)
(-0.151387 0.118212 -0.245446)
(-0.0928375 0.121042 -0.20142)
(-0.162669 0.115552 -0.240028)
(-0.216211 0.0938649 -0.285482)
(-0.0795455 -0.0559789 -0.219674)
(-0.0554936 -0.0619603 -0.215696)
(-0.0381778 -0.053908 -0.205684)
(-0.0440458 -0.067167 -0.19767)
(-0.0182545 -0.0570527 -0.193049)
(-0.0233194 -0.0672761 -0.188624)
(-0.00940638 -0.0581746 -0.182489)
(-0.0076916 -0.0690134 -0.17496)
(0.0106716 -0.0357919 -0.16341)
(0.0215589 -0.0417903 -0.159123)
(0.0182059 -0.0407872 -0.152943)
(0.0126286 -0.0466962 -0.142041)
(0.0147671 -0.0607727 -0.125364)
(0.0137829 -0.0744627 -0.124416)
(-0.0169453 -0.0751178 -0.142631)
(-0.0162607 -0.114383 -0.174509)
(-0.0228598 -0.133592 -0.236634)
(-0.0237487 -0.119826 -0.262492)
(-0.0607518 -0.142426 -0.298799)
(-0.136542 -0.0622146 -0.271407)
(-0.130556 -0.0490943 -0.233352)
(-0.123582 -0.0280734 -0.200151)
(-0.110459 -0.0167569 -0.178826)
(-0.104233 -0.00882764 -0.165693)
(-0.0932244 -0.00843977 -0.152654)
(-0.085667 -0.00628467 -0.146087)
(-0.0751056 -0.00915785 -0.137908)
(-0.0689377 -0.00905573 -0.137869)
(-0.0583328 -0.0114385 -0.134442)
(-0.053186 -0.0125356 -0.132296)
(-0.0461248 -0.0131436 -0.126294)
(-0.07187 -0.0145998 -0.148662)
(-0.0510117 -0.00530641 -0.143427)
(-0.0410027 -0.00617622 -0.1322)
(-0.018825 -0.00647143 -0.142414)
(-0.0193488 -0.00192294 -0.153149)
(-0.0048591 0.010191 -0.180312)
(0.00951365 0.00671089 -0.15002)
(0.0106039 0.00682158 -0.127341)
(0.011979 0.00510919 -0.10664)
(0.0114557 0.00470865 -0.0921352)
(0.00538059 0.00275198 -0.0932476)
(-0.00421583 -0.00529359 -0.123356)
(-0.00290917 -0.010396 -0.171287)
(0.00920567 -0.000637749 -0.192998)
(0.0200319 0.0105399 -0.172884)
(0.0176358 0.013922 -0.138841)
(0.013164 0.011504 -0.117696)
(0.00849953 0.00644384 -0.128886)
(0.0178244 0.0113945 -0.149962)
(0.00816539 0.0310235 -0.118462)
(-0.0292399 0.0423985 -0.0800031)
(0.00652348 0.0363367 -0.0707137)
(0.0875237 0.00190861 -0.0208363)
(0.0680436 -0.0698067 0.00308468)
(0.0755499 -0.0434419 -0.113645)
(-0.0396726 0.184069 0.0850518)
(-0.0512229 0.114821 0.310574)
(-0.0718518 0.0740493 0.322783)
(0.0163213 0.0386448 0.192828)
(0.0258571 0.0733378 -0.0951667)
(-0.0489204 0.0870747 -0.156884)
(-0.020491 0.0525162 -0.122751)
(0.0425998 -0.0123494 -0.142252)
(0.0644636 -0.0355663 -0.15687)
(0.0535173 -0.0225111 -0.171953)
(0.0252445 0.000528628 -0.1761)
(0.0154708 0.00986913 -0.168624)
(0.0136859 0.00411348 -0.170024)
(0.0143848 -0.00622591 -0.180784)
(0.0100792 -0.0078153 -0.197468)
(-0.00110039 -0.000395305 -0.213679)
(-0.0146304 0.0102456 -0.223796)
(-0.0277545 0.0179709 -0.225953)
(-0.0368061 0.0225513 -0.221204)
(-0.0428187 0.0232468 -0.21235)
(-0.0459093 0.0224882 -0.20073)
(-0.0478334 0.0206838 -0.187268)
(-0.0494946 0.0189575 -0.174054)
(-0.0543526 0.0184815 -0.16412)
(-0.0621406 0.0202603 -0.158751)
(-0.0726477 0.0235212 -0.156774)
(-0.0835302 0.0277144 -0.156387)
(-0.0911292 0.0290711 -0.151673)
(-0.0963189 0.0266864 -0.156581)
(-0.119629 0.0318729 -0.161151)
(-0.159147 0.0223389 -0.149231)
(-0.180901 0.0212069 -0.155782)
(-0.20833 0.0238526 -0.158175)
(-0.236557 0.0209934 -0.154351)
(-0.290298 0.0172098 -0.146229)
(-0.333335 0.0152794 -0.112089)
(-0.352035 0.00536599 -0.110355)
(-0.0921826 0.0366778 -0.0691333)
(-0.0864912 0.0199596 -0.0936417)
(-0.0812472 0.0148023 -0.0844883)
(-0.0628357 0.00174106 -0.0936491)
(-0.00962039 -0.0401194 -0.0753708)
(0.00860415 -0.0261503 -0.0684538)
(0.145248 -0.129662 -0.0863554)
(-0.103991 0.0937393 -0.0298895)
(0.0116909 0.0495259 -0.0747479)
(0.00856326 0.0365082 -0.0844467)
(0.023137 0.010973 -0.100077)
(0.00328089 0.070815 -0.0846036)
(-0.0382339 0.0603665 -0.0375109)
(-0.0599573 0.046551 -0.0493674)
(0.0112006 0.0325039 -0.107443)
(0.0171784 0.0182896 -0.0974446)
(0.00410468 0.00524273 -0.0827807)
(-0.0380936 0.0341332 -0.040549)
(-0.0510201 0.0407301 -0.0149939)
(-0.0596455 0.0243889 -0.0684446)
(-0.040017 0.0276615 -0.0167634)
(0.0427661 0.0207271 -0.0816797)
(0.0352237 0.00766995 -0.123501)
(0.0344251 -0.00820182 -0.135473)
(0.0315363 -0.0126076 -0.135757)
(0.0324812 -0.00998443 -0.14867)
(0.0409753 0.00191085 -0.139971)
(0.0407675 0.00623722 -0.135831)
(0.039424 0.00492751 -0.129978)
(0.0387524 0.00408297 -0.134884)
(0.0438799 0.0126963 -0.127817)
(0.028099 0.0203494 -0.118168)
(0.0325729 0.0103892 -0.12814)
(0.0373459 0.00770382 -0.127203)
(0.0394493 0.00383684 -0.133033)
(0.0370029 0.00631883 -0.149774)
(0.0304911 0.00670224 -0.165202)
(0.024786 0.00331362 -0.178804)
(0.0180974 -0.00226074 -0.186268)
(0.0101231 -0.00861666 -0.191021)
(0.000491222 -0.0111175 -0.186697)
(-0.00902478 -0.0155028 -0.178647)
(-0.0186239 -0.0182375 -0.17067)
(-0.0281049 -0.0198528 -0.16042)
(-0.0407793 -0.0249085 -0.156084)
(-0.0476284 -0.0217543 -0.145569)
(-0.0525893 -0.0169543 -0.128835)
(-0.0554439 -0.016983 -0.113284)
(-0.0578929 -0.0218516 -0.0950793)
(-0.0581911 -0.0148034 -0.084606)
(-0.0569626 -0.0121118 -0.076014)
(-0.0603647 -0.0126344 -0.0714008)
(-0.0564345 -0.00819289 -0.0680274)
(-0.0560876 -0.00872312 -0.0671247)
(-0.0610811 -0.0116678 -0.0715247)
(-0.0599353 -0.0130605 -0.0696801)
(-0.0616701 -0.0154631 -0.0693163)
(-0.0643005 -0.0168307 -0.0708227)
(-0.0678012 -0.0199059 -0.0719107)
(-0.0710272 -0.0211165 -0.0732989)
(-0.0738338 -0.0245168 -0.0736186)
(-0.076922 -0.0240469 -0.074227)
(-0.0808207 -0.026954 -0.0747287)
(-0.0842455 -0.0259581 -0.0754471)
(-0.0878783 -0.0288695 -0.0754009)
(-0.0915935 -0.028584 -0.0755287)
(-0.095705 -0.0257007 -0.0761493)
(-0.102012 -0.026772 -0.0752518)
(-0.105009 -0.0237736 -0.0775532)
(-0.108768 -0.0231642 -0.076365)
(-0.112803 -0.0211706 -0.0771306)
(-0.120575 -0.0146059 -0.0778358)
(-0.127089 -0.0115237 -0.0750141)
(-0.127773 -0.00802078 -0.0773024)
(-0.132793 0.00532733 -0.0772073)
(-0.139211 0.01196 -0.0739827)
(-0.130869 0.0245026 -0.0730459)
(-0.128057 0.0416014 -0.0659847)
(-0.107654 0.0438689 -0.0582561)
(-0.0846131 0.0567024 -0.052039)
(-0.0726104 0.0633771 -0.043487)
(-0.051003 0.0489851 -0.0382202)
(-0.0341049 0.0274781 -0.0282388)
(-0.0278337 -0.00712931 -0.0252337)
(-0.0352206 -0.0423827 -0.0469598)
(-0.0550304 -0.0577982 -0.0982549)
(-0.034487 -0.0599692 -0.0886234)
(-0.0475563 -0.0869656 -0.0309344)
(-0.0604838 -0.09649 -0.0178645)
(-0.0800065 -0.114135 -0.0175711)
(-0.108307 -0.102596 -0.0385934)
(-0.134151 -0.105132 -0.058321)
(-0.141053 -0.102582 -0.0593388)
(-0.161362 -0.0937065 -0.0662979)
(-0.178935 -0.0833823 -0.0703369)
(-0.219225 -0.0615762 -0.0714036)
(-0.230549 -0.0374587 -0.0928237)
(-0.240192 0.00726104 -0.0964675)
(-0.265977 0.0335585 -0.109406)
(-0.129628 0.020644 -0.153)
(-0.116025 0.00882799 -0.156182)
(-0.106775 0.00343576 -0.15474)
(-0.0978227 -0.00245094 -0.152685)
(-0.0908719 -0.00775436 -0.151609)
(-0.0859188 -0.0153248 -0.150814)
(-0.0824387 -0.0221688 -0.15401)
(-0.0786937 -0.0214524 -0.160958)
(-0.0727582 -0.0187604 -0.167566)
(-0.0655089 -0.0144338 -0.175694)
(-0.0561671 -0.0128885 -0.185587)
(-0.0444465 -0.00118289 -0.202552)
(-0.0318523 0.00440473 -0.206953)
(-0.0158322 0.0134004 -0.223414)
(-0.0019383 0.0153464 -0.215279)
(0.0122442 0.0218377 -0.223244)
(0.0218066 0.0329741 -0.202364)
(0.0270597 0.062356 -0.212726)
(0.0351441 0.111703 -0.169871)
(0.0370432 0.113684 -0.128485)
(0.0532335 0.109835 -0.101612)
(0.0341929 0.0991708 -0.0692203)
(0.00644334 0.0758638 -0.0825565)
(0.0353497 0.14542 -0.0883957)
(0.011438 0.259981 -0.0929464)
(0.0244835 0.138901 0.0147597)
(0.000900208 0.0535695 -0.12102)
(-0.0486995 0.0739351 -0.131788)
(0.0401198 0.0866726 -0.0292723)
(-0.0218985 0.0612289 -0.070841)
(-0.0117468 0.054105 -0.125326)
(0.0719407 0.0372172 -0.0931211)
(0.0135422 0.0188851 -0.12211)
(0.100506 -0.0576664 -0.170227)
(0.0338899 0.0430923 -0.126637)
(0.0306689 0.0301849 -0.186377)
(0.0466721 -0.00517279 -0.179822)
(0.0460069 0.0096946 -0.119366)
(0.0447712 -0.0088011 -0.137916)
(0.0191006 -0.00263585 -0.100643)
(0.0101426 -0.00983203 -0.104323)
(0.0184783 -0.00282915 -0.135442)
(0.0542263 -0.0014247 -0.114558)
(0.0714842 0.017249 -0.0667148)
(-0.0118615 0.0257942 -0.104829)
(0.0243367 -0.00185955 -0.0654573)
(0.00411807 0.00780459 -0.0240011)
(0.0250436 0.0425246 -0.100616)
(0.039412 0.000463146 -0.144319)
(0.0246833 -0.0189664 -0.124598)
(0.0361767 -0.00308508 -0.106149)
(0.0462979 0.00456578 -0.100944)
(0.0376396 0.00923417 -0.0285869)
(-0.0011478 0.0313061 -0.0361992)
(0.0100283 0.0453324 -0.193629)
(0.00731293 0.017607 -0.145975)
(0.0215461 0.0133896 -0.0969674)
(0.038931 0.0220021 -0.129555)
(0.0384746 -0.0101214 -0.148459)
(0.0389193 -0.016659 -0.128256)
(0.0399771 -0.00874354 -0.114719)
(0.0330077 0.018057 -0.123868)
(0.00830469 0.0340801 -0.0812909)
(-0.0223447 0.0555229 -0.0947047)
(-0.0584978 0.0620529 -0.0297247)
(0.0161522 0.0382932 -0.0821163)
(0.0271015 0.0259162 -0.140145)
(0.0406799 -0.00195744 -0.133292)
(0.03569 -0.00471981 -0.124811)
(0.0407521 -0.00195268 -0.135909)
(0.0337512 0.00458768 -0.158189)
(0.0355469 0.00934168 -0.160375)
(0.0391147 0.0079616 -0.148406)
(0.0402875 0.00361603 -0.134793)
(0.0345406 0.00285906 -0.132448)
(0.0326577 0.00554081 -0.144399)
(0.0265515 0.01553 -0.134602)
(0.0283005 0.00198198 -0.120604)
(0.0303859 -0.0032409 -0.134319)
(0.0291224 -0.00356297 -0.128722)
(0.0359618 -0.00362622 -0.138117)
(0.0314424 0.000777176 -0.14861)
(0.0265274 0.00304321 -0.165558)
(0.0189926 0.00102108 -0.180998)
(0.0100879 -0.00294615 -0.188991)
(0.00137963 -0.00731765 -0.189827)
(-0.00668744 -0.0123762 -0.187378)
(-0.0159056 -0.0144284 -0.179541)
(-0.0250428 -0.0154337 -0.169829)
(-0.0319078 -0.0163917 -0.158732)
(-0.0406584 -0.0206782 -0.153326)
(-0.0434614 -0.0201084 -0.141586)
(-0.0488567 -0.0188762 -0.128117)
(-0.0507747 -0.0158478 -0.112826)
(-0.0580618 -0.0176031 -0.105547)
(-0.0581174 -0.0131616 -0.096505)
(-0.0579767 -0.00790925 -0.0816778)
(-0.0616639 -0.0098505 -0.0803782)
(-0.0584111 -0.00752806 -0.0717557)
(-0.0554709 -0.00544632 -0.0624618)
(-0.0556443 -0.00579973 -0.0627646)
(-0.0581371 -0.0037063 -0.0636504)
(-0.0628032 -0.00726835 -0.0706933)
(-0.0601294 -0.00855071 -0.0677531)
(-0.0647108 -0.0110983 -0.0685954)
(-0.0645478 -0.0110599 -0.0667768)
(-0.0680276 -0.0116851 -0.0691581)
(-0.070271 -0.0126725 -0.0684823)
(-0.075183 -0.0135488 -0.0711128)
(-0.0780381 -0.0158091 -0.0700051)
(-0.0800559 -0.014661 -0.0698643)
(-0.0837125 -0.015622 -0.0681766)
(-0.0856113 -0.0139717 -0.0690753)
(-0.0888021 -0.00965234 -0.0699074)
(-0.0943019 -0.00943564 -0.0685734)
(-0.0958608 -0.00770956 -0.0703807)
(-0.0964276 -0.0028916 -0.0708016)
(-0.0991249 -0.00247209 -0.0676325)
(-0.100448 0.000405781 -0.0684716)
(-0.0970947 0.00713526 -0.0656247)
(-0.10002 0.0091635 -0.0645655)
(-0.100008 0.0131403 -0.0648281)
(-0.0972236 0.0186847 -0.0641903)
(-0.0894924 0.0145988 -0.0628819)
(-0.0823675 0.0149824 -0.0610418)
(-0.0806095 0.0141778 -0.056894)
(-0.0731435 0.00666602 -0.0577481)
(-0.0691133 -0.00695264 -0.0535346)
(-0.0727763 -0.0121248 -0.0556374)
(-0.0726104 -0.0207413 -0.0557289)
(-0.0809862 -0.0295981 -0.0541944)
(-0.0837236 -0.0299648 -0.0590773)
(-0.0935182 -0.0359103 -0.0614372)
(-0.10384 -0.0357141 -0.0665356)
(-0.115106 -0.0442474 -0.0618353)
(-0.125419 -0.0482017 -0.0666191)
(-0.129196 -0.0347521 -0.0742469)
(-0.159782 -0.0341083 -0.0703502)
(-0.157858 -0.0284235 -0.0810683)
(-0.181578 -0.018689 -0.0745474)
(-0.177241 -0.013908 -0.085484)
(-0.192579 0.00608984 -0.0782618)
(-0.186751 0.00657909 -0.0884979)
(-0.18501 0.0337588 -0.0888944)
(-0.204621 0.049748 -0.099775)
(-0.198102 0.0574054 -0.106617)
(-0.194365 0.0825793 -0.109574)
(0.0834885 -0.15552 -0.00200071)
(0.0944778 0.0149538 -0.0211339)
(-0.136929 0.0975838 -0.102899)
(0.0242342 0.0999358 -0.108198)
(0.00458196 0.0329904 -0.0491955)
(-0.0295591 0.0124075 -0.0993065)
(-0.0447862 0.0249474 -0.0509126)
(-0.00463446 0.0107134 -0.0669437)
(0.0185362 -0.0290227 -0.0863676)
(-0.0535923 0.039383 -0.0446407)
(-0.0446148 0.0313603 -0.0579995)
(0.0724863 -0.00837793 -0.107545)
(0.0214585 0.0090682 -0.0926277)
(0.0206933 0.0742798 -0.100907)
(-0.030991 0.0713078 -0.0896315)
(-0.036301 0.0337768 -0.105199)
(-0.0317333 0.0160193 -0.0895028)
(0.0271712 0.0390434 -0.12637)
(-0.0352176 0.0261789 -0.0657311)
(-0.0240598 0.0566761 -0.0833615)
(0.00701671 0.104517 -0.0796615)
(-0.00664435 0.0415352 -0.0396855)
(0.00101665 0.0173027 0.0110739)
(-0.0288363 0.0385068 -0.00162952)
(0.016369 0.051296 -0.0496365)
(0.106098 0.0598238 -0.145853)
(-0.014584 0.119513 -0.1692)
(0.0297555 0.0617362 -0.183318)
(-0.062355 -0.0078273 -0.166472)
(-0.048999 0.0151102 -0.108295)
(-0.019746 0.0502479 -0.0803827)
(-0.0402938 0.0484391 -0.0809444)
(0.0174493 0.0556608 -0.114538)
(0.0134546 0.0516103 -0.0992982)
(-0.0116202 0.0626261 -0.113442)
(0.0257345 0.014335 -0.0888787)
(0.0608822 0.0195405 -0.101555)
(0.0640663 0.0342292 -0.0853196)
(0.00472595 0.0652061 -0.103414)
(0.218078 0.0967126 -0.130554)
(-0.0556642 -0.0706132 -0.0786731)
(0.0266783 0.0460539 -0.0706057)
(0.0223938 0.0121607 -0.0863136)
(0.0538916 0.116012 -0.0498239)
(0.0244195 0.0781481 -0.187057)
(0.0338128 0.0489714 -0.287584)
(0.0649901 -0.000117226 -0.32659)
(0.047806 -0.0752424 -0.0470865)
(0.10497 -0.0340058 -0.0717487)
(0.0890098 -0.0571448 -0.15072)
(0.0226643 -0.0539055 -0.083086)
(0.052264 -0.0492764 -0.0824032)
(0.0850219 -0.0376926 -0.162141)
(0.0300659 0.025505 -0.199002)
(0.029028 -0.00543806 -0.163424)
(0.0434778 -0.0246083 -0.110885)
(0.0400827 -0.0269856 -0.0900039)
(0.0813238 -0.0353167 -0.0482408)